 DBCSR| CPU Multiplication driver                                           XSMM (U)
 DBCSR| Multrec recursion limit                                              512 (U)
 DBCSR| Multiplication stack size                                           1000 (D)
 DBCSR| Maximum elements for images                                    UNLIMITED (U)
 DBCSR| Multiplicative factor virtual images                                   1 (U)
 DBCSR| Use multiplication densification                                       T (D)
 DBCSR| Multiplication size stacks                                             3 (U)
 DBCSR| Use memory pool for CPU allocation                                     F (U)
 DBCSR| Number of 3D layers                                               SINGLE (U)
 DBCSR| Use MPI memory allocation                                              F (U)
 DBCSR| Use RMA algorithm                                                      F (U)
 DBCSR| Use Communication thread                                               T (U)
 DBCSR| Communication thread load                                             87 (D)
 DBCSR| MPI: My process id                                                     0
 DBCSR| MPI: Number of processes                                             128
 DBCSR| OMP: Current number of threads                                         1
 DBCSR| OMP: Max number of threads                                             1
 DBCSR| Split modifier for TAS multiplication algorithm                  1.0E+00 (U)


  **** **** ******  **  PROGRAM STARTED AT               2025-06-16 15:22:32.885
 ***** ** ***  *** **   PROGRAM STARTED ON                             nid001310
 **    ****   ******    PROGRAM STARTED BY                                cahart
 ***** **    ** ** **   PROGRAM PROCESS ID                                 90918
  **** **  *******  **  PROGRAM STARTED IN /mnt/lustre/a2fs-work2/work/e05/e05/c
                                           ahart/postdoc2/work/group/tio2/anatas
                                           e/cell-441/geo-opt/mp-390/hole/from-n
                                           eutral/pbe-u-o/u-3.0-rs-5.0

 CP2K| version string:                                       CP2K version 2024.3
 CP2K| source code revision number:                                  git:6712648
 CP2K| cp2kflags: omp libint fftw3 libxc libgrpp elpa parallel scalapack cosma x
 CP2K|            smm plumed2 spglib mkl sirius libvori libbqb libvdwxc hdf5
 CP2K| is freely available from                            https://www.cp2k.org/
 CP2K| Program compiled at                       Thu 12 Sep 2024 10:20:47 AM BST
 CP2K| Program compiled on                                                  ln04
 CP2K| Program compiled for                                                local
 CP2K| Data directory path    /mnt/lustre/a2fs-work1/work/y07/shared/apps/core/c
 CP2K| Input file name                                                 input.inp

 GLOBAL| Force Environment number                                              1
 GLOBAL| Basis set file name                                        BASIS_MOLOPT
 GLOBAL| Potential file name                                      GTH_POTENTIALS
 GLOBAL| MM Potential file name                                     MM_POTENTIAL
 GLOBAL| Coordinate file name                                         system.xyz
 GLOBAL| Method name                                                        CP2K
 GLOBAL| Project name                                                       tio2
 GLOBAL| Run type                                                        GEO_OPT
 GLOBAL| FFT library                                                       FFTW3
 GLOBAL| Diagonalization library                                            ELPA
 GLOBAL| DGEMM library                                                      BLAS
 GLOBAL| Minimum number of eigenvectors for ELPA usage                        16
 GLOBAL| Orthonormality check for eigenvectors                          DISABLED
 GLOBAL| Matrix multiplication library                                     COSMA
 GLOBAL| All-to-all communication in single precision                          F
 GLOBAL| FFTs using library dependent lengths                                  F
 GLOBAL| Grid backend                                                       AUTO
 GLOBAL| Global print level                                               MEDIUM
 GLOBAL| MPI I/O enabled                                                       T
 GLOBAL| Total number of message passing processes                           128
 GLOBAL| Number of threads for this process                                    1
 GLOBAL| This output is from process                                           0
 GLOBAL| Stack size for threads created by OpenMP (OMP_STACKSIZE)        default
 GLOBAL| CPU model name                          AMD EPYC 7742 64-Core Processor
 GLOBAL| CPUID                                                              1002

 MEMORY| system memory details [Kb]
 MEMORY|                        rank 0           min           max       average
 MEMORY| MemTotal            263341976     263341976     263341976     263341976
 MEMORY| MemFree             233667548     233667548     233667548     233667548
 MEMORY| Buffers                     0             0             0             0
 MEMORY| Cached                2098228       2098228       2098228       2098228
 MEMORY| Slab                  6096376       6096376       6096376       6096376
 MEMORY| SReclaimable           907072        907072        907072        907072
 MEMORY| MemLikelyFree       236672848     236672848     236672848     236672848


 *** Fundamental physical constants (SI units) ***

 *** Literature: B. J. Mohr and B. N. Taylor,
 ***             CODATA recommended values of the fundamental physical
 ***             constants: 2006, Web Version 5.1
 ***             http://physics.nist.gov/constants

 Speed of light in vacuum [m/s]                             2.99792458000000E+08
 Magnetic constant or permeability of vacuum [N/A**2]       1.25663706143592E-06
 Electric constant or permittivity of vacuum [F/m]          8.85418781762039E-12
 Planck constant (h) [J*s]                                  6.62606896000000E-34
 Planck constant (h-bar) [J*s]                              1.05457162825177E-34
 Elementary charge [C]                                      1.60217648700000E-19
 Electron mass [kg]                                         9.10938215000000E-31
 Electron g factor [ ]                                     -2.00231930436220E+00
 Proton mass [kg]                                           1.67262163700000E-27
 Fine-structure constant                                    7.29735253760000E-03
 Rydberg constant [1/m]                                     1.09737315685270E+07
 Avogadro constant [1/mol]                                  6.02214179000000E+23
 Boltzmann constant [J/K]                                   1.38065040000000E-23
 Atomic mass unit [kg]                                      1.66053878200000E-27
 Bohr radius [m]                                            5.29177208590000E-11

 *** Conversion factors ***

 [u] -> [a.u.]                                              1.82288848426455E+03
 [Angstrom] -> [Bohr] = [a.u.]                              1.88972613288564E+00
 [a.u.] = [Bohr] -> [Angstrom]                              5.29177208590000E-01
 [a.u.] -> [s]                                              2.41888432650478E-17
 [a.u.] -> [fs]                                             2.41888432650478E-02
 [a.u.] -> [J]                                              4.35974393937059E-18
 [a.u.] -> [N]                                              8.23872205491840E-08
 [a.u.] -> [K]                                              3.15774647902944E+05
 [a.u.] -> [kJ/mol]                                         2.62549961709828E+03
 [a.u.] -> [kcal/mol]                                       6.27509468713739E+02
 [a.u.] -> [Pa]                                             2.94210107994716E+13
 [a.u.] -> [bar]                                            2.94210107994716E+08
 [a.u.] -> [atm]                                            2.90362800883016E+08
 [a.u.] -> [eV]                                             2.72113838565563E+01
 [a.u.] -> [Hz]                                             6.57968392072181E+15
 [a.u.] -> [1/cm] (wave numbers)                            2.19474631370540E+05
 [a.u./Bohr**2] -> [1/cm]                                   5.14048714338585E+03
 

 CELL_TOP| Volume [angstrom^3]:                                      2198.132028
 CELL_TOP| Vector a [angstrom    15.120     0.000     0.000   |a| =    15.120000
 CELL_TOP| Vector b [angstrom     0.000    15.120     0.000   |b| =    15.120000
 CELL_TOP| Vector c [angstrom     0.000     0.000     9.615   |c| =     9.615020
 CELL_TOP| Angle (b,c), alpha [degree]:                                90.000000
 CELL_TOP| Angle (a,c), beta  [degree]:                                90.000000
 CELL_TOP| Angle (a,b), gamma [degree]:                                90.000000
 CELL_TOP| Requested initial symmetry:                       MONOCLINIC_GAMMA_AB
 CELL_TOP| Numerically orthorhombic:                                         YES
 CELL_TOP| Periodicity                                                       XYZ

 *** WARNING in atoms_input.F:123 :: Overwriting coordinates. Active    ***
 *** coordinates read from &COORD section. Active coordinates READ from ***
 *** &COORD section                                                     ***


 GENERATE|  Preliminary Number of Bonds generated:                             0
 GENERATE|  Achieved consistency in connectivity generation.

 CELL| Volume [angstrom^3]:                                          2198.132028
 CELL| Vector a [angstrom]:      15.120     0.000     0.000   |a| =    15.120000
 CELL| Vector b [angstrom]:       0.000    15.120     0.000   |b| =    15.120000
 CELL| Vector c [angstrom]:       0.000     0.000     9.615   |c| =     9.615020
 CELL| Angle (b,c), alpha [degree]:                                    90.000000
 CELL| Angle (a,c), beta  [degree]:                                    90.000000
 CELL| Angle (a,b), gamma [degree]:                                    90.000000
 CELL| Requested initial symmetry:                           MONOCLINIC_GAMMA_AB
 CELL| Numerically orthorhombic:                                             YES
 CELL| Periodicity                                                           XYZ

 CELL_REF| Volume [angstrom^3]:                                      2198.132028
 CELL_REF| Vector a [angstrom    15.120     0.000     0.000   |a| =    15.120000
 CELL_REF| Vector b [angstrom     0.000    15.120     0.000   |b| =    15.120000
 CELL_REF| Vector c [angstrom     0.000     0.000     9.615   |c| =     9.615020
 CELL_REF| Angle (b,c), alpha [degree]:                                90.000000
 CELL_REF| Angle (a,c), beta  [degree]:                                90.000000
 CELL_REF| Angle (a,b), gamma [degree]:                                90.000000
 CELL_REF| Requested initial symmetry:                       MONOCLINIC_GAMMA_AB
 CELL_REF| Numerically orthorhombic:                                         YES
 CELL_REF| Periodicity                                                       XYZ

 *******************************************************************************
 *******************************************************************************
 **                                                                           **
 **     #####                         ##              ##                      **
 **    ##   ##            ##          ##              ##                      **
 **   ##     ##                       ##            ######                    **
 **   ##     ##  ##   ##  ##   #####  ##  ##   ####   ##    #####    #####    **
 **   ##     ##  ##   ##  ##  ##      ## ##   ##      ##   ##   ##  ##   ##   **
 **   ##  ## ##  ##   ##  ##  ##      ####     ###    ##   ######   ######    **
 **    ##  ###   ##   ##  ##  ##      ## ##      ##   ##   ##       ##        **
 **     #######   #####   ##   #####  ##  ##  ####    ##    #####   ##        **
 **           ##                                                    ##        **
 **                                                                           **
 **                                                ... make the atoms dance   **
 **                                                                           **
 **            Copyright (C) by CP2K developers group (2000-2024)             **
 **                      J. Chem. Phys. 152, 194103 (2020)                    **
 **                                                                           **
 *******************************************************************************

 DFT| Spin unrestricted (spin-polarized) Kohn-Sham calculation               UKS
 DFT| Multiplicity                                                             2
 DFT| Number of spin states                                                    2
 DFT| Charge                                                                   1
 DFT| Self-interaction correction (SIC)                                       NO
 DFT| Cutoffs: density                                              1.000000E-10
 DFT|          gradient                                             1.000000E-10
 DFT|          tau                                                  1.000000E-10
 DFT|          cutoff_smoothing_range                               0.000000E+00
 DFT| XC density smoothing                                                  NONE
 DFT| XC derivatives                                                          PW

 DFT+U| Method                                                          MULLIKEN
 DFT+U| Check atomic kind information for details

 FUNCTIONAL| PBE:
 FUNCTIONAL| J.P.Perdew, K.Burke, M.Ernzerhof, Phys. Rev. Letter, vol. 77, n 18,
 FUNCTIONAL|  pp. 3865-3868, (1996) {spin polarized}                            


 QS| Method:                                                                 GPW
 QS| Density plane wave grid type                        NON-SPHERICAL FULLSPACE
 QS| Number of grid levels:                                                    4
 QS| Density cutoff [a.u.]:                                                300.0
 QS| Multi grid cutoff [a.u.]: 1) grid level                               300.0
 QS|                           2) grid level                               100.0
 QS|                           3) grid level                                33.3
 QS|                           4) grid level                                11.1
 QS| Grid level progression factor:                                          3.0
 QS| Relative density cutoff [a.u.]:                                        20.0
 QS| Interaction thresholds: eps_pgf_orb:                                1.0E-06
 QS|                         eps_filter_matrix:                          0.0E+00
 QS|                         eps_core_charge:                            1.0E-14
 QS|                         eps_rho_gspace:                             1.0E-12
 QS|                         eps_rho_rspace:                             1.0E-12
 QS|                         eps_gvg_rspace:                             1.0E-06
 QS|                         eps_ppl:                                    1.0E-02
 QS|                         eps_ppnl:                                   1.0E-08


 ATOMIC KIND INFORMATION

  1. Atomic kind: Ti                                    Number of atoms:      64

     Orbital Basis Set                                    DZVP-MOLOPT-SR-GTH-q12

       Number of orbital shell sets:                                           1
       Number of orbital shells:                                               8
       Number of primitive Cartesian functions:                                6
       Number of Cartesian basis functions:                                   31
       Number of spherical basis functions:                                   26
       Norm type:                                                              2

       Normalised Cartesian orbitals:

                        Set   Shell   Orbital            Exponent    Coefficient

                          1       1    2s                7.884570       0.015554
                                                         3.894698       0.963603
                                                         1.513589      -0.631435
                                                         0.596768      -0.343022
                                                         0.222222      -0.006534
                                                         0.077078       0.007652

                          1       2    3s                7.884570      -0.009340
                                                         3.894698       0.212624
                                                         1.513589      -0.258368
                                                         0.596768      -0.226206
                                                         0.222222       0.039438
                                                         0.077078       0.107179

                          1       3    4s                7.884570       0.276563
                                                         3.894698       0.105452
                                                         1.513589       0.085149
                                                         0.596768       0.882541
                                                         0.222222      -0.696223
                                                         0.077078       0.156638

                          1       4    3px               7.884570      -2.034794
                                                         3.894698       0.782008
                                                         1.513589       1.253903
                                                         0.596768       0.347823
                                                         0.222222       0.016778
                                                         0.077078      -0.000433
                          1       4    3py               7.884570      -2.034794
                                                         3.894698       0.782008
                                                         1.513589       1.253903
                                                         0.596768       0.347823
                                                         0.222222       0.016778
                                                         0.077078      -0.000433
                          1       4    3pz               7.884570      -2.034794
                                                         3.894698       0.782008
                                                         1.513589       1.253903
                                                         0.596768       0.347823
                                                         0.222222       0.016778
                                                         0.077078      -0.000433

                          1       5    4px               7.884570       0.376572
                                                         3.894698      -0.182875
                                                         1.513589      -0.474776
                                                         0.596768      -0.081757
                                                         0.222222       0.064432
                                                         0.077078       0.047279
                          1       5    4py               7.884570       0.376572
                                                         3.894698      -0.182875
                                                         1.513589      -0.474776
                                                         0.596768      -0.081757
                                                         0.222222       0.064432
                                                         0.077078       0.047279
                          1       5    4pz               7.884570       0.376572
                                                         3.894698      -0.182875
                                                         1.513589      -0.474776
                                                         0.596768      -0.081757
                                                         0.222222       0.064432
                                                         0.077078       0.047279

                          1       6    4dx2              7.884570       3.047350
                                                         3.894698       3.289529
                                                         1.513589       1.060616
                                                         0.596768       0.249930
                                                         0.222222       0.038806
                                                         0.077078       0.002319
                          1       6    4dxy              7.884570       5.278165
                                                         3.894698       5.697631
                                                         1.513589       1.837041
                                                         0.596768       0.432892
                                                         0.222222       0.067214
                                                         0.077078       0.004017
                          1       6    4dxz              7.884570       5.278165
                                                         3.894698       5.697631
                                                         1.513589       1.837041
                                                         0.596768       0.432892
                                                         0.222222       0.067214
                                                         0.077078       0.004017
                          1       6    4dy2              7.884570       3.047350
                                                         3.894698       3.289529
                                                         1.513589       1.060616
                                                         0.596768       0.249930
                                                         0.222222       0.038806
                                                         0.077078       0.002319
                          1       6    4dyz              7.884570       5.278165
                                                         3.894698       5.697631
                                                         1.513589       1.837041
                                                         0.596768       0.432892
                                                         0.222222       0.067214
                                                         0.077078       0.004017
                          1       6    4dz2              7.884570       3.047350
                                                         3.894698       3.289529
                                                         1.513589       1.060616
                                                         0.596768       0.249930
                                                         0.222222       0.038806
                                                         0.077078       0.002319

                          1       7    5dx2              7.884570      -2.119015
                                                         3.894698      -1.237751
                                                         1.513589      -0.746777
                                                         0.596768      -0.071514
                                                         0.222222       0.004086
                                                         0.077078       0.017595
                          1       7    5dxy              7.884570      -3.670241
                                                         3.894698      -2.143848
                                                         1.513589      -1.293455
                                                         0.596768      -0.123865
                                                         0.222222       0.007077
                                                         0.077078       0.030475
                          1       7    5dxz              7.884570      -3.670241
                                                         3.894698      -2.143848
                                                         1.513589      -1.293455
                                                         0.596768      -0.123865
                                                         0.222222       0.007077
                                                         0.077078       0.030475
                          1       7    5dy2              7.884570      -2.119015
                                                         3.894698      -1.237751
                                                         1.513589      -0.746777
                                                         0.596768      -0.071514
                                                         0.222222       0.004086
                                                         0.077078       0.017595
                          1       7    5dyz              7.884570      -3.670241
                                                         3.894698      -2.143848
                                                         1.513589      -1.293455
                                                         0.596768      -0.123865
                                                         0.222222       0.007077
                                                         0.077078       0.030475
                          1       7    5dz2              7.884570      -2.119015
                                                         3.894698      -1.237751
                                                         1.513589      -0.746777
                                                         0.596768      -0.071514
                                                         0.222222       0.004086
                                                         0.077078       0.017595

                          1       8    5fx3              7.884570      -0.342058
                                                         3.894698       0.375798
                                                         1.513589      -0.706469
                                                         0.596768      -0.229994
                                                         0.222222      -0.012723
                                                         0.077078       0.003932
                          1       8    5fx2y             7.884570      -0.764866
                                                         3.894698       0.840310
                                                         1.513589      -1.579712
                                                         0.596768      -0.514282
                                                         0.222222      -0.028450
                                                         0.077078       0.008792
                          1       8    5fx2z             7.884570      -0.764866
                                                         3.894698       0.840310
                                                         1.513589      -1.579712
                                                         0.596768      -0.514282
                                                         0.222222      -0.028450
                                                         0.077078       0.008792
                          1       8    5fxy2             7.884570      -0.764866
                                                         3.894698       0.840310
                                                         1.513589      -1.579712
                                                         0.596768      -0.514282
                                                         0.222222      -0.028450
                                                         0.077078       0.008792
                          1       8    5fxyz             7.884570      -1.324787
                                                         3.894698       1.455460
                                                         1.513589      -2.736142
                                                         0.596768      -0.890763
                                                         0.222222      -0.049276
                                                         0.077078       0.015229
                          1       8    5fxz2             7.884570      -0.764866
                                                         3.894698       0.840310
                                                         1.513589      -1.579712
                                                         0.596768      -0.514282
                                                         0.222222      -0.028450
                                                         0.077078       0.008792
                          1       8    5fy3              7.884570      -0.342058
                                                         3.894698       0.375798
                                                         1.513589      -0.706469
                                                         0.596768      -0.229994
                                                         0.222222      -0.012723
                                                         0.077078       0.003932
                          1       8    5fy2z             7.884570      -0.764866
                                                         3.894698       0.840310
                                                         1.513589      -1.579712
                                                         0.596768      -0.514282
                                                         0.222222      -0.028450
                                                         0.077078       0.008792
                          1       8    5fyz2             7.884570      -0.764866
                                                         3.894698       0.840310
                                                         1.513589      -1.579712
                                                         0.596768      -0.514282
                                                         0.222222      -0.028450
                                                         0.077078       0.008792
                          1       8    5fz3              7.884570      -0.342058
                                                         3.894698       0.375798
                                                         1.513589      -0.706469
                                                         0.596768      -0.229994
                                                         0.222222      -0.012723
                                                         0.077078       0.003932

       Atomic covalent radius [Angstrom]:                                  1.320

       Atomic van der Waals radius [Angstrom]:                             1.760

     GTH Potential information for                                   GTH-PBE-q12

       Description:                       Goedecker-Teter-Hutter pseudopotential
                                           Goedecker et al., PRB 54, 1703 (1996)
                                          Hartwigsen et al., PRB 58, 3641 (1998)
                                                      Krack, TCA 114, 145 (2005)

       Gaussian exponent of the core charge distribution:               3.462604
       Electronic configuration (s p d ...):                           4   6   2

       Parameters of the local part of the GTH pseudopotential:

                          rloc        C1          C2          C3          C4
                        0.380000    8.711442   -0.700287

       Parameters of the non-local part of the GTH pseudopotential:

                   l      r(l)      h(i,j,l)

                   0    0.337771    2.575264    3.692971
                                    3.692971   -4.767605
                   1    0.242531   -4.630541    8.870875
                                    8.870875  -10.496161
                   2    0.243317   -9.406653

  2. Atomic kind: O                                     Number of atoms:     128

     Orbital Basis Set                                     DZVP-MOLOPT-SR-GTH-q6

       Number of orbital shell sets:                                           1
       Number of orbital shells:                                               5
       Number of primitive Cartesian functions:                                5
       Number of Cartesian basis functions:                                   14
       Number of spherical basis functions:                                   13
       Norm type:                                                              2

       Normalised Cartesian orbitals:

                        Set   Shell   Orbital            Exponent    Coefficient

                          1       1    2s               10.389228       0.396646
                                                         3.849621       0.208811
                                                         1.388401      -0.301641
                                                         0.496955      -0.274061
                                                         0.162492      -0.033677

                          1       2    3s               10.389228       0.303673
                                                         3.849621       0.240943
                                                         1.388401      -0.313066
                                                         0.496955      -0.043055
                                                         0.162492       0.213991

                          1       3    3px              10.389228      -1.530415
                                                         3.849621      -1.371928
                                                         1.388401      -0.761951
                                                         0.496955      -0.253695
                                                         0.162492      -0.035541
                          1       3    3py              10.389228      -1.530415
                                                         3.849621      -1.371928
                                                         1.388401      -0.761951
                                                         0.496955      -0.253695
                                                         0.162492      -0.035541
                          1       3    3pz              10.389228      -1.530415
                                                         3.849621      -1.371928
                                                         1.388401      -0.761951
                                                         0.496955      -0.253695
                                                         0.162492      -0.035541

                          1       4    4px              10.389228      -0.565392
                                                         3.849621      -0.038231
                                                         1.388401      -0.382373
                                                         0.496955       0.179070
                                                         0.162492       0.122714
                          1       4    4py              10.389228      -0.565392
                                                         3.849621      -0.038231
                                                         1.388401      -0.382373
                                                         0.496955       0.179070
                                                         0.162492       0.122714
                          1       4    4pz              10.389228      -0.565392
                                                         3.849621      -0.038231
                                                         1.388401      -0.382373
                                                         0.496955       0.179070
                                                         0.162492       0.122714

                          1       5    4dx2             10.389228       1.867377
                                                         3.849621       0.670994
                                                         1.388401       1.353441
                                                         0.496955       0.273538
                                                         0.162492       0.006620
                          1       5    4dxy             10.389228       3.234392
                                                         3.849621       1.162195
                                                         1.388401       2.344229
                                                         0.496955       0.473781
                                                         0.162492       0.011466
                          1       5    4dxz             10.389228       3.234392
                                                         3.849621       1.162195
                                                         1.388401       2.344229
                                                         0.496955       0.473781
                                                         0.162492       0.011466
                          1       5    4dy2             10.389228       1.867377
                                                         3.849621       0.670994
                                                         1.388401       1.353441
                                                         0.496955       0.273538
                                                         0.162492       0.006620
                          1       5    4dyz             10.389228       3.234392
                                                         3.849621       1.162195
                                                         1.388401       2.344229
                                                         0.496955       0.473781
                                                         0.162492       0.011466
                          1       5    4dz2             10.389228       1.867377
                                                         3.849621       0.670994
                                                         1.388401       1.353441
                                                         0.496955       0.273538
                                                         0.162492       0.006620

       Atomic covalent radius [Angstrom]:                                  0.730

       Atomic van der Waals radius [Angstrom]:                             1.520

     GTH Potential information for                                    GTH-PBE-q6

       Description:                       Goedecker-Teter-Hutter pseudopotential
                                           Goedecker et al., PRB 54, 1703 (1996)
                                          Hartwigsen et al., PRB 58, 3641 (1998)
                                                      Krack, TCA 114, 145 (2005)

       Gaussian exponent of the core charge distribution:               8.360253
       Electronic configuration (s p d ...):                               2   4

       Parameters of the local part of the GTH pseudopotential:

                          rloc        C1          C2          C3          C4
                        0.244554  -16.667215    2.487311

       Parameters of the non-local part of the GTH pseudopotential:

                   l      r(l)      h(i,j,l)

                   0    0.220956   18.337458
                   1    0.211332

     A DFT+U correction is applied to atoms of this atomic kind:
       Angular quantum momentum number L:                                      1
       U(eff) = (U - J) value in [eV]:                                     5.000


 MOLECULE KIND INFORMATION


 All atoms are their own molecule, skipping detailed information


 TOTAL NUMBERS AND MAXIMUM NUMBERS

  Total number of            - Atomic kinds:                                   2
                             - Atoms:                                        192
                             - Shell sets:                                   192
                             - Shells:                                      1152
                             - Primitive Cartesian functions:               1024
                             - Cartesian basis functions:                   3776
                             - Spherical basis functions:                   3328

  Maximum angular momentum of- Orbital basis functions:                        3
                             - Local part of the GTH pseudopotential:          2
                             - Non-local part of the GTH pseudopotential:      3


 MODULE QUICKSTEP: ATOMIC COORDINATES IN ANGSTROM

   Atom Kind Element         X             Y             Z       Z(eff)     Mass
      1    1 Ti   22      0.001260      0.001252     -0.000003  12.0000  47.8670
      2    1 Ti   22      1.888109      1.888112      4.807510  12.0000  47.8670
      3    1 Ti   22      0.001250      1.888079      2.402161  12.0000  47.8670
      4    1 Ti   22      1.888101      0.001248      7.212857  12.0000  47.8670
      5    1 Ti   22      0.001223      3.776117      0.002752  12.0000  47.8670
      6    1 Ti   22      1.888128     13.237316      4.805899  12.0000  47.8670
      7    1 Ti   22     11.350524      1.888074      2.403700  12.0000  47.8670
      8    1 Ti   22      5.668995      0.001213      7.217206  12.0000  47.8670
      9    1 Ti   22      1.888071      3.776114      7.210050  12.0000  47.8670
     10    1 Ti   22      0.001274     13.237252      2.403775  12.0000  47.8670
     11    1 Ti   22      5.669011      1.888088      4.803103  12.0000  47.8670
     12    1 Ti   22     11.350486      0.001229     -0.001540  12.0000  47.8670
     13    1 Ti   22      3.776123      0.001228     -0.002750  12.0000  47.8670
     14    1 Ti   22     13.237316      1.888125      4.809116  12.0000  47.8670
     15    1 Ti   22     13.237270      0.001287      7.211257  12.0000  47.8670
     16    1 Ti   22      3.776114      1.888065      2.404967  12.0000  47.8670
     17    1 Ti   22      1.888086      5.669019      4.811915  12.0000  47.8670
     18    1 Ti   22      0.001228     11.350495      0.001532  12.0000  47.8670
     19    1 Ti   22      0.001220      5.668986      2.397806  12.0000  47.8670
     20    1 Ti   22      1.888088     11.350523      7.211323  12.0000  47.8670
     21    1 Ti   22      0.001210      7.569794      0.005911  12.0000  47.8670
     22    1 Ti   22      1.888099      9.462592      4.808628  12.0000  47.8670
     23    1 Ti   22      7.569820      1.888062      2.408121  12.0000  47.8670
     24    1 Ti   22      9.462539      0.001239      7.213932  12.0000  47.8670
     25    1 Ti   22      1.888054      7.569821      7.206902  12.0000  47.8670
     26    1 Ti   22      0.001242      9.462531      2.401091  12.0000  47.8670
     27    1 Ti   22      9.462588      1.888109      4.806389  12.0000  47.8670
     28    1 Ti   22      7.569786      0.001205     -0.005907  12.0000  47.8670
     29    1 Ti   22      3.776080      3.776082     -0.000004  12.0000  47.8670
     30    1 Ti   22     13.237292     13.237301      4.807515  12.0000  47.8670
     31    1 Ti   22     11.350547      5.668983      2.399293  12.0000  47.8670
     32    1 Ti   22      5.668996     11.350535      7.215723  12.0000  47.8670
     33    1 Ti   22     13.237296      3.776150      7.208506  12.0000  47.8670
     34    1 Ti   22      3.776143     13.237288      2.406517  12.0000  47.8670
     35    1 Ti   22      5.668948      5.668947      4.807508  12.0000  47.8670
     36    1 Ti   22     11.350497     11.350502      0.000000  12.0000  47.8670
     37    1 Ti   22     11.350509     13.237283      2.405312  12.0000  47.8670
     38    1 Ti   22      5.668967      3.776076      7.214444  12.0000  47.8670
     39    1 Ti   22      3.776097     11.350522     -0.001267  12.0000  47.8670
     40    1 Ti   22     13.237343      5.669018      4.813473  12.0000  47.8670
     41    1 Ti   22      5.669023     13.237342      4.801552  12.0000  47.8670
     42    1 Ti   22     11.350514      3.776095      0.001271  12.0000  47.8670
     43    1 Ti   22     13.237282     11.350516      7.209712  12.0000  47.8670
     44    1 Ti   22      3.776082      5.668957      2.400574  12.0000  47.8670
     45    1 Ti   22      3.776065      7.569827      0.003137  12.0000  47.8670
     46    1 Ti   22     13.237319      9.462567      4.810185  12.0000  47.8670
     47    1 Ti   22      7.569890      5.668922      2.403711  12.0000  47.8670
     48    1 Ti   22      9.462564     11.350529      7.212437  12.0000  47.8670
     49    1 Ti   22     13.237315      7.569818      7.205343  12.0000  47.8670
     50    1 Ti   22      3.776098      9.462573      2.403836  12.0000  47.8670
     51    1 Ti   22      9.462622      5.668999      4.810781  12.0000  47.8670
     52    1 Ti   22      7.569796     11.350535     -0.004421  12.0000  47.8670
     53    1 Ti   22     11.350529      9.462559      2.402575  12.0000  47.8670
     54    1 Ti   22      5.668923      7.569878      7.211312  12.0000  47.8670
     55    1 Ti   22      5.668995      9.462619      4.804239  12.0000  47.8670
     56    1 Ti   22     11.350532      7.569797      0.004419  12.0000  47.8670
     57    1 Ti   22      9.462580      3.776095      7.211176  12.0000  47.8670
     58    1 Ti   22      7.569810     13.237318      2.409678  12.0000  47.8670
     59    1 Ti   22      7.569827      3.776061     -0.003137  12.0000  47.8670
     60    1 Ti   22      9.462563     13.237334      4.804839  12.0000  47.8670
     61    1 Ti   22      7.569870      7.569871      0.000006  12.0000  47.8670
     62    1 Ti   22      9.462610      9.462612      4.807510  12.0000  47.8670
     63    1 Ti   22      7.569837      9.462600      2.406973  12.0000  47.8670
     64    1 Ti   22      9.462599      7.569843      7.208042  12.0000  47.8670
     65    2 O     8      0.000479      0.001669      1.986608   6.0000  15.9994
     66    2 O     8      1.884490      1.887486      6.794337   6.0000  15.9994
     67    2 O     8      0.001665      1.884474      4.390451   6.0000  15.9994
     68    2 O     8      1.887506      0.000493      9.198018   6.0000  15.9994
     69    2 O     8      1.884463      0.001664      5.224574   6.0000  15.9994
     70    2 O     8      0.000496      1.887506      0.417003   6.0000  15.9994
     71    2 O     8      1.887485      1.884497      2.820683   6.0000  15.9994
     72    2 O     8      0.001674      0.000478      7.628409   6.0000  15.9994
     73    2 O     8      0.000539      3.775722      1.983630   6.0000  15.9994
     74    2 O     8      1.884461     13.236842      6.794210   6.0000  15.9994
     75    2 O     8     11.351060      1.884498      4.390609   6.0000  15.9994
     76    2 O     8      5.672110      0.000537      9.198925   6.0000  15.9994
     77    2 O     8      1.884576      3.775690      5.227482   6.0000  15.9994
     78    2 O     8      0.000475     13.236835      0.417139   6.0000  15.9994
     79    2 O     8      5.672077      1.884534      2.819782   6.0000  15.9994
     80    2 O     8     11.351038      0.000499      7.628243   6.0000  15.9994
     81    2 O     8      3.775727      0.000541      7.631385   6.0000  15.9994
     82    2 O     8     13.236840      1.884468      2.820805   6.0000  15.9994
     83    2 O     8     13.236829      0.000472      9.197882   6.0000  15.9994
     84    2 O     8      3.775700      1.884583      4.387537   6.0000  15.9994
     85    2 O     8      1.884534      5.672074      6.795236   6.0000  15.9994
     86    2 O     8      0.000498     11.351034      1.986778   6.0000  15.9994
     87    2 O     8      0.000530      5.672115      0.416097   6.0000  15.9994
     88    2 O     8      1.884487     11.351059      5.224412   6.0000  15.9994
     89    2 O     8      0.000531      7.566740      1.987720   6.0000  15.9994
     90    2 O     8      1.884568      9.462950      6.791371   6.0000  15.9994
     91    2 O     8      7.566786      1.884535      4.391542   6.0000  15.9994
     92    2 O     8      9.462916      0.000531      9.194978   6.0000  15.9994
     93    2 O     8      1.884537      7.566782      5.223477   6.0000  15.9994
     94    2 O     8      0.000530      9.462919      0.420043   6.0000  15.9994
     95    2 O     8      9.462948      1.884568      2.823652   6.0000  15.9994
     96    2 O     8      7.566743      0.000540      7.627303   6.0000  15.9994
     97    2 O     8      3.769219      0.001657      1.987294   6.0000  15.9994
     98    2 O     8     13.237942      1.887511      6.794236   6.0000  15.9994
     99    2 O     8      0.001664      5.656035      4.390837   6.0000  15.9994
    100    2 O     8      1.887484     11.353993      9.198095   6.0000  15.9994
    101    2 O     8     13.237966      0.001673      5.224681   6.0000  15.9994
    102    2 O     8      3.769254      1.887489      0.416350   6.0000  15.9994
    103    2 O     8      1.887492      5.656086      2.820303   6.0000  15.9994
    104    2 O     8      0.001659     11.354025      7.628321   6.0000  15.9994
    105    2 O     8     11.354008      1.887488      0.416927   6.0000  15.9994
    106    2 O     8      5.656031      0.001667      5.224184   6.0000  15.9994
    107    2 O     8      5.656085      1.887488      6.794716   6.0000  15.9994
    108    2 O     8     11.354033      0.001657      1.986697   6.0000  15.9994
    109    2 O     8      1.887487      3.769252      9.198669   6.0000  15.9994
    110    2 O     8      0.001676     13.237962      4.390343   6.0000  15.9994
    111    2 O     8      0.001662      3.769219      7.627722   6.0000  15.9994
    112    2 O     8      1.887507     13.237937      2.820780   6.0000  15.9994
    113    2 O     8      3.769404      3.775674      1.984474   6.0000  15.9994
    114    2 O     8     13.237965     13.236838      6.794102   6.0000  15.9994
    115    2 O     8     11.351054      5.656082      4.390980   6.0000  15.9994
    116    2 O     8      5.672072     11.353962      9.198994   6.0000  15.9994
    117    2 O     8     13.237911      3.775728      5.227661   6.0000  15.9994
    118    2 O     8      3.769209     13.236842      0.416448   6.0000  15.9994
    119    2 O     8      5.672054      5.656249      2.819175   6.0000  15.9994
    120    2 O     8     11.351054     11.354012      7.628167   6.0000  15.9994
    121    2 O     8     11.354031     13.236841      0.417049   6.0000  15.9994
    122    2 O     8      5.656258      3.775683      5.226908   6.0000  15.9994
    123    2 O     8      3.775696     11.353924      7.631239   6.0000  15.9994
    124    2 O     8     13.236840      5.656033      2.820422   6.0000  15.9994
    125    2 O     8      5.656030     13.236839      6.794596   6.0000  15.9994
    126    2 O     8     11.353934      3.775693      1.983787   6.0000  15.9994
    127    2 O     8     13.236838     11.354018      9.197971   6.0000  15.9994
    128    2 O     8      3.775682      5.656257      4.388114   6.0000  15.9994
    129    2 O     8      5.656251      5.672055      6.795850   6.0000  15.9994
    130    2 O     8     11.354009     11.351055      1.986853   6.0000  15.9994
    131    2 O     8     13.236839      3.769209      9.198574   6.0000  15.9994
    132    2 O     8      3.775732     13.237909      4.387359   6.0000  15.9994
    133    2 O     8     11.353966      5.672070      0.416025   6.0000  15.9994
    134    2 O     8      5.656075     11.351056      5.224035   6.0000  15.9994
    135    2 O     8      3.775682      3.769406      7.630551   6.0000  15.9994
    136    2 O     8     13.236832     13.237968      2.820915   6.0000  15.9994
    137    2 O     8     13.237959     11.351039      5.224514   6.0000  15.9994
    138    2 O     8      3.769373      5.672036      0.415445   6.0000  15.9994
    139    2 O     8      5.672119     13.237909      2.819872   6.0000  15.9994
    140    2 O     8     11.351054      3.769253      7.627595   6.0000  15.9994
    141    2 O     8      3.769250     11.351055      1.987429   6.0000  15.9994
    142    2 O     8     13.237910      5.672120      6.795152   6.0000  15.9994
    143    2 O     8     11.351039     13.237952      4.390511   6.0000  15.9994
    144    2 O     8      5.672048      3.769375      9.199573   6.0000  15.9994
    145    2 O     8      3.769378      7.566808      1.988363   6.0000  15.9994
    146    2 O     8     13.237921      9.462919      6.791198   6.0000  15.9994
    147    2 O     8      7.566819      5.656252      4.392148   6.0000  15.9994
    148    2 O     8      9.462941     11.353925      9.195120   6.0000  15.9994
    149    2 O     8     13.237917      7.566743      5.223564   6.0000  15.9994
    150    2 O     8      3.769392      9.462964      0.419206   6.0000  15.9994
    151    2 O     8      9.462959      5.656261      2.823078   6.0000  15.9994
    152    2 O     8      7.566774     11.353967      7.627232   6.0000  15.9994
    153    2 O     8     11.353924      9.462949      0.419896   6.0000  15.9994
    154    2 O     8      5.656248      7.566807      5.222870   6.0000  15.9994
    155    2 O     8      5.656255      9.462959      6.791939   6.0000  15.9994
    156    2 O     8     11.353969      7.566779      1.987785   6.0000  15.9994
    157    2 O     8      9.462961      3.769396      9.195811   6.0000  15.9994
    158    2 O     8      7.566744     13.237912      4.391455   6.0000  15.9994
    159    2 O     8      7.566815      3.769384      7.626655   6.0000  15.9994
    160    2 O     8      9.462916     13.237910      2.823831   6.0000  15.9994
    161    2 O     8      7.582581      0.001664      1.987090   6.0000  15.9994
    162    2 O     8      9.469301      1.887489      6.794893   6.0000  15.9994
    163    2 O     8      0.001659      9.469353      4.391026   6.0000  15.9994
    164    2 O     8      1.887490      7.582525      9.198482   6.0000  15.9994
    165    2 O     8      9.469348      0.001664      5.223996   6.0000  15.9994
    166    2 O     8      7.582529      1.887486      0.416537   6.0000  15.9994
    167    2 O     8      1.887489      9.469302      2.820126   6.0000  15.9994
    168    2 O     8      0.001657      7.582584      7.627931   6.0000  15.9994
    169    2 O     8      7.582359      3.775680      1.984363   6.0000  15.9994
    170    2 O     8      9.469345     13.236841      6.794794   6.0000  15.9994
    171    2 O     8     11.351053      9.469309      4.391156   6.0000  15.9994
    172    2 O     8      5.672040      7.582365      9.199593   6.0000  15.9994
    173    2 O     8      9.469163      3.775678      5.226826   6.0000  15.9994
    174    2 O     8      7.582580     13.236839      0.416656   6.0000  15.9994
    175    2 O     8      5.672038      9.469179      2.819222   6.0000  15.9994
    176    2 O     8     11.351053      7.582532      7.627787   6.0000  15.9994
    177    2 O     8      3.775673      7.582357      7.630654   6.0000  15.9994
    178    2 O     8     13.236840      9.469340      2.820226   6.0000  15.9994
    179    2 O     8     13.236842      7.582577      9.198363   6.0000  15.9994
    180    2 O     8      3.775677      9.469157      4.388189   6.0000  15.9994
    181    2 O     8      9.469181      5.672048      6.795793   6.0000  15.9994
    182    2 O     8      7.582533     11.351059      1.987234   6.0000  15.9994
    183    2 O     8      7.582369      5.672049      0.415425   6.0000  15.9994
    184    2 O     8      9.469307     11.351058      5.223861   6.0000  15.9994
    185    2 O     8      7.582366      7.566819      1.988387   6.0000  15.9994
    186    2 O     8      9.469157      9.462967      6.792030   6.0000  15.9994
    187    2 O     8      7.566806      9.469183      4.392090   6.0000  15.9994
    188    2 O     8      9.462965      7.582358      9.195703   6.0000  15.9994
    189    2 O     8      9.469183      7.566822      5.222924   6.0000  15.9994
    190    2 O     8      7.582358      9.462966      0.419317   6.0000  15.9994
    191    2 O     8      9.462962      9.469161      2.822998   6.0000  15.9994
    192    2 O     8      7.566818      7.582367      7.626639   6.0000  15.9994



 SCF PARAMETERS         Density guess:                                   RESTART
                        --------------------------------------------------------
                        max_scf:                                              40
                        max_scf_history:                                       0
                        max_diis:                                              4
                        --------------------------------------------------------
                        eps_scf:                                        1.00E-06
                        eps_scf_history:                                0.00E+00
                        eps_diis:                                       1.00E-01
                        eps_eigval:                                     1.00E-05
                        --------------------------------------------------------
                        level_shift [a.u.]:                             0.000000
                        --------------------------------------------------------
                        Outer loop SCF in use 
                        No variables optimised in outer loop
                        eps_scf                                         1.00E-06
                        max_scf                                               60
                        No outer loop optimization
                        step_size                                       5.00E-01

 PW_GRID| Information for grid number                                          1
 PW_GRID| Grid distributed over                                   128 processors
 PW_GRID| Real space group dimensions                                   128    1
 PW_GRID| the grid is blocked:                                                NO
 PW_GRID| Cutoff [a.u.]                                                    300.0
 PW_GRID| spherical cutoff:                                                   NO
 PW_GRID|   Bounds   1           -112     112                Points:         225
 PW_GRID|   Bounds   2           -112     112                Points:         225
 PW_GRID|   Bounds   3            -72      71                Points:         144
 PW_GRID| Volume element (a.u.^3)  0.2035E-02     Volume (a.u.^3)     14833.7304
 PW_GRID| Grid span                                                    FULLSPACE
 PW_GRID|   Distribution                         Average         Max         Min
 PW_GRID|   G-Vectors                            56953.1       57150       56925
 PW_GRID|   G-Rays                                 253.1         254         253
 PW_GRID|   Real Space Points                    56953.1       64800       32400

 PW_GRID| Information for grid number                                          2
 PW_GRID| Number of the reference grid                                         1
 PW_GRID| Grid distributed over                                   128 processors
 PW_GRID| Real space group dimensions                                   128    1
 PW_GRID| the grid is blocked:                                                NO
 PW_GRID| Cutoff [a.u.]                                                    100.0
 PW_GRID| spherical cutoff:                                                   NO
 PW_GRID|   Bounds   1            -67      67                Points:         135
 PW_GRID|   Bounds   2            -67      67                Points:         135
 PW_GRID|   Bounds   3            -40      40                Points:          81
 PW_GRID| Volume element (a.u.^3)  0.1005E-01     Volume (a.u.^3)     14833.7304
 PW_GRID| Grid span                                                    FULLSPACE
 PW_GRID|   Distribution                         Average         Max         Min
 PW_GRID|   G-Vectors                            11533.0       12150       10800
 PW_GRID|   G-Rays                                  85.4          90          80
 PW_GRID|   Real Space Points                    11533.0       21870       10935

 PW_GRID| Information for grid number                                          3
 PW_GRID| Number of the reference grid                                         1
 PW_GRID| Grid distributed over                                   128 processors
 PW_GRID| Real space group dimensions                                     8   16
 PW_GRID| the grid is blocked:                                                NO
 PW_GRID| Cutoff [a.u.]                                                     33.3
 PW_GRID| spherical cutoff:                                                   NO
 PW_GRID|   Bounds   1            -37      37                Points:          75
 PW_GRID|   Bounds   2            -37      37                Points:          75
 PW_GRID|   Bounds   3            -24      23                Points:          48
 PW_GRID| Volume element (a.u.^3)  0.5494E-01     Volume (a.u.^3)     14833.7304
 PW_GRID| Grid span                                                    FULLSPACE
 PW_GRID|   Distribution                         Average         Max         Min
 PW_GRID|   G-Vectors                             2109.4        2475        1725
 PW_GRID|   G-Rays                                  28.1          33          23
 PW_GRID|   Real Space Points                     2109.4        2400        1728

 PW_GRID| Information for grid number                                          4
 PW_GRID| Number of the reference grid                                         1
 PW_GRID| Grid distributed over                                   128 processors
 PW_GRID| Real space group dimensions                                     8   16
 PW_GRID| the grid is blocked:                                                NO
 PW_GRID| Cutoff [a.u.]                                                     11.1
 PW_GRID| spherical cutoff:                                                   NO
 PW_GRID|   Bounds   1            -22      22                Points:          45
 PW_GRID|   Bounds   2            -22      22                Points:          45
 PW_GRID|   Bounds   3            -13      13                Points:          27
 PW_GRID| Volume element (a.u.^3)  0.2713         Volume (a.u.^3)     14833.7304
 PW_GRID| Grid span                                                    FULLSPACE
 PW_GRID|   Distribution                         Average         Max         Min
 PW_GRID|   G-Vectors                              427.1         585         270
 PW_GRID|   G-Rays                                   9.5          13           6
 PW_GRID|   Real Space Points                      427.1         486         270

 POISSON| Solver                                                        PERIODIC
 POISSON| Periodicity                                                        XYZ

 RS_GRID| Information for grid number                                          1
 RS_GRID|   Bounds   1           -112     112                Points:         225
 RS_GRID|   Bounds   2           -112     112                Points:         225
 RS_GRID|   Bounds   3            -72      71                Points:         144
 RS_GRID| Real space distribution over                                  8 groups
 RS_GRID| Real space distribution along direction                              1
 RS_GRID| Border size                                                         26
 RS_GRID| Real space distribution over                                 16 groups
 RS_GRID| Real space distribution along direction                              2
 RS_GRID| Border size                                                         26
 RS_GRID|   Distribution                         Average         Max         Min
 RS_GRID|   Planes                                  80.1          81          80
 RS_GRID|   Distribution                         Average         Max         Min
 RS_GRID|   Planes                                  66.1          67          66

 RS_GRID| Information for grid number                                          2
 RS_GRID|   Bounds   1            -67      67                Points:         135
 RS_GRID|   Bounds   2            -67      67                Points:         135
 RS_GRID|   Bounds   3            -40      40                Points:          81
 RS_GRID| Real space distribution over                                  8 groups
 RS_GRID| Real space distribution along direction                              1
 RS_GRID| Border size                                                         24
 RS_GRID| Real space distribution over                                 16 groups
 RS_GRID| Real space distribution along direction                              2
 RS_GRID| Border size                                                         24
 RS_GRID|   Distribution                         Average         Max         Min
 RS_GRID|   Planes                                  64.9          65          64
 RS_GRID|   Distribution                         Average         Max         Min
 RS_GRID|   Planes                                  56.4          57          56

 RS_GRID| Information for grid number                                          3
 RS_GRID|   Bounds   1            -37      37                Points:          75
 RS_GRID|   Bounds   2            -37      37                Points:          75
 RS_GRID|   Bounds   3            -24      23                Points:          48
 RS_GRID| Real space fully replicated
 RS_GRID| Group size                                                           1

 RS_GRID| Information for grid number                                          4
 RS_GRID|   Bounds   1            -22      22                Points:          45
 RS_GRID|   Bounds   2            -22      22                Points:          45
 RS_GRID|   Bounds   3            -13      13                Points:          27
 RS_GRID| Real space fully replicated
 RS_GRID| Group size                                                           1

 BFGS| Use rational function optimization for step estimation:                NO
 BFGS| Use model Hessian for initial guess:                                  YES
 BFGS| Restart Hessian:                                                       NO
 BFGS| Trust radius:                                                       0.472

 *******************************************************************************
 ***                     STARTING GEOMETRY OPTIMIZATION                      ***
 ***                                   BFGS                                  ***
 *******************************************************************************

 Spin 1

 Number of electrons:                                                        768
 Number of occupied orbitals:                                                768
 Number of molecular orbitals:                                               768

 Spin 2

 Number of electrons:                                                        767
 Number of occupied orbitals:                                                767
 Number of molecular orbitals:                                               767

 Number of orbital functions:                                               3328
 Number of independent orbital functions:                                   3328

 Extrapolation method: initial_guess

 *** WARNING in qs_initial_guess.F:306 :: User requested to restart the    ***
 *** wavefunction from the file named: tio2-RESTART.wfn. This file does    ***
 *** not exist. Please check the existence of the file or change properly  ***
 *** the value of the keyword WFN_RESTART_FILE_NAME. Calculation continues ***
 *** using ATOMIC GUESS.                                                   ***


 Atomic guess: The first density matrix is obtained in terms of atomic orbitals
               and electronic configurations assigned to each atomic kind

 Guess for atomic kind: Ti

 Electronic structure
    Total number of core electrons                                         10.00
    Total number of valence electrons                                      12.00
    Total number of electrons                                              22.00
    Multiplicity                                                   not specified
    S   [  2.00  2.00] 2.00  2.00
    P   [  6.00] 6.00
    D      2.00


 *******************************************************************************
                  Iteration          Convergence                     Energy [au]
 *******************************************************************************
                          1         2.59099                     -56.573945749309
                          2        0.737518                     -57.461623245624
                          3        0.123244E-01                 -57.676656834797
                          4        0.338536E-02                 -57.676690535970
                          5        0.252157E-03                 -57.676697146183
                          6        0.162704E-05                 -57.676697160103
                          7        0.846593E-06                 -57.676697160104

 Energy components [Hartree]           Total Energy ::          -57.676697160104
                                        Band Energy ::          -13.440549799540
                                     Kinetic Energy ::           25.008468428381
                                   Potential Energy ::          -82.685165588485
                                      Virial (-V/T) ::            3.306286661467
                                        Core Energy ::          -97.155838374470
                                          XC Energy ::           -6.919409696495
                                     Coulomb Energy ::           46.398550910862
                       Total Pseudopotential Energy ::         -122.259340742080
                       Local Pseudopotential Energy ::         -118.928992669456
                    Nonlocal Pseudopotential Energy ::           -3.330348072625
                                        Confinement ::            0.950339392289

 Orbital energies  State     L     Occupation   Energy[a.u.]          Energy[eV]

                       1     0          2.000      -2.312566          -62.928123
                       2     0          2.000      -0.123060           -3.348633

                       1     1          6.000      -1.385567          -37.703193

                       1     2          2.000      -0.127948           -3.481643


 Total Electron Density at R=0:                                         0.004726

 Guess for atomic kind: O

 Electronic structure
    Total number of core electrons                                          2.00
    Total number of valence electrons                                       6.00
    Total number of electrons                                               8.00
    Multiplicity                                                   not specified
    S   [  2.00] 2.00
    P      4.00


 *******************************************************************************
                  Iteration          Convergence                     Energy [au]
 *******************************************************************************
                          1        0.702811                     -15.577904332270
                          2        0.612408                     -15.588447180504
                          3        0.955344E-02                 -15.655871208406
                          4        0.223754E-02                 -15.655885053552
                          5        0.157183E-02                 -15.655885461027
                          6        0.124953E-02                 -15.655885607150
                          7        0.312011E-06                 -15.655885858066

 Energy components [Hartree]           Total Energy ::          -15.655885858066
                                        Band Energy ::           -2.983128125584
                                     Kinetic Energy ::           11.754765134683
                                   Potential Energy ::          -27.410650992749
                                      Virial (-V/T) ::            2.331875684345
                                        Core Energy ::          -26.153522949072
                                          XC Energy ::           -3.157392363346
                                     Coulomb Energy ::           13.655029454351
                       Total Pseudopotential Energy ::          -37.943026860963
                       Local Pseudopotential Energy ::          -39.220419683052
                    Nonlocal Pseudopotential Energy ::            1.277392822089
                                        Confinement ::            0.347387772086

 Orbital energies  State     L     Occupation   Energy[a.u.]          Energy[eV]

                       1     0          2.000      -0.861522          -23.443215

                       1     1          4.000      -0.315021           -8.572154


 Total Electron Density at R=0:                                         0.000093

 Spin 1
 Re-scaling the density matrix to get the right number of electrons for spin 1
                  # Electrons              Trace(P)               Scaling factor
                          768               768.001                        1.000

 Spin 2
 Re-scaling the density matrix to get the right number of electrons for spin 2
                  # Electrons              Trace(P)               Scaling factor
                          767               768.001                        0.999


 SCF WAVEFUNCTION OPTIMIZATION

  ----------------------------------- OT ---------------------------------------
  Minimizer      : DIIS                : direct inversion
                                         in the iterative subspace
                                         using   7 DIIS vectors
                                         safer DIIS on
  Preconditioner : FULL_SINGLE_INVERSE : inversion of 
                                         H + eS - 2*(Sc)(c^T*H*c+const)(Sc)^T
  Precond_solver : DEFAULT
  stepsize       :    0.08000000                  energy_gap     :    0.08000000
  eps_taylor     :   0.10000E-15                  max_taylor     :             4
  ----------------------------------- OT ---------------------------------------

  Step     Update method      Time    Convergence         Total energy    Change
  ------------------------------------------------------------------------------
     1 OT DIIS     0.80E-01    2.0     0.01000325     -5652.9722051707 -5.65E+03
     2 OT DIIS     0.80E-01    1.5     0.00723383     -5687.6469409340 -3.47E+01
     3 OT DIIS     0.80E-01    1.5     0.00459979     -5720.1798692289 -3.25E+01
     4 OT DIIS     0.80E-01    1.5     0.00365272     -5730.4316869441 -1.03E+01
     5 OT DIIS     0.80E-01    1.5     0.00266885     -5741.7294629701 -1.13E+01
     6 OT DIIS     0.80E-01    1.5     0.00219846     -5748.5931102756 -6.86E+00
     7 OT DIIS     0.80E-01    1.5     0.00184895     -5754.6226740532 -6.03E+00
     8 OT DIIS     0.80E-01    1.5     0.00147957     -5760.5201093687 -5.90E+00
     9 OT DIIS     0.80E-01    1.5     0.00127610     -5764.1378712221 -3.62E+00
    10 OT DIIS     0.80E-01    1.5     0.00099597     -5767.3781479482 -3.24E+00
    11 OT DIIS     0.80E-01    1.5     0.00090903     -5768.1908172316 -8.13E-01
    12 OT DIIS     0.80E-01    1.5     0.00073786     -5769.9667290890 -1.78E+00
    13 OT DIIS     0.80E-01    1.5     0.00060212     -5771.3332625303 -1.37E+00
    14 OT DIIS     0.80E-01    1.5     0.00049856     -5772.2540727978 -9.21E-01
    15 OT DIIS     0.80E-01    1.5     0.00044655     -5772.7347212043 -4.81E-01
    16 OT DIIS     0.80E-01    1.6     0.00037693     -5773.2523304942 -5.18E-01
    17 OT DIIS     0.80E-01    1.5     0.00034610     -5773.4913351622 -2.39E-01
    18 OT DIIS     0.80E-01    1.5     0.00030182     -5773.8023160618 -3.11E-01
    19 OT DIIS     0.80E-01    1.5     0.00026624     -5774.0075276191 -2.05E-01
    20 OT DIIS     0.80E-01    1.5     0.00025309     -5774.1096710715 -1.02E-01
    21 OT DIIS     0.80E-01    1.5     0.00022820     -5774.3081012549 -1.98E-01
    22 OT DIIS     0.80E-01    1.4     0.00020685     -5774.4422258107 -1.34E-01
    23 OT DIIS     0.80E-01    1.5     0.00019187     -5774.5640584083 -1.22E-01
    24 OT DIIS     0.80E-01    1.5     0.00017186     -5774.6484555716 -8.44E-02
    25 OT DIIS     0.80E-01    1.5     0.00016415     -5774.7100953048 -6.16E-02
    26 OT DIIS     0.80E-01    1.5     0.00014704     -5774.7799902977 -6.99E-02
    27 OT DIIS     0.80E-01    1.5     0.00014237     -5774.8299999223 -5.00E-02
    28 OT DIIS     0.80E-01    1.4     0.00013686     -5774.8504452314 -2.04E-02
    29 OT DIIS     0.80E-01    1.5     0.00013412     -5774.8987194488 -4.83E-02
    30 OT DIIS     0.80E-01    1.5     0.00013274     -5774.9028102845 -4.09E-03
    31 OT DIIS     0.80E-01    1.6     0.00012260     -5774.9221729684 -1.94E-02
    32 OT DIIS     0.80E-01    1.4     0.00012313     -5774.9401649263 -1.80E-02
    33 OT DIIS     0.80E-01    1.4     0.00011593     -5774.9599233270 -1.98E-02
    34 OT DIIS     0.80E-01    1.5     0.00010898     -5774.9861357299 -2.62E-02
    35 OT DIIS     0.80E-01    1.5     0.00009518     -5775.0465930769 -6.05E-02
    36 OT DIIS     0.80E-01    1.4     0.00009208     -5775.0609827488 -1.44E-02
    37 OT DIIS     0.80E-01    1.5     0.00008939     -5775.0974680842 -3.65E-02
    38 OT DIIS     0.80E-01    1.4     0.00008405     -5775.1073403611 -9.87E-03
    39 OT DIIS     0.80E-01    1.4     0.00007984     -5775.1324224814 -2.51E-02
    40 OT DIIS     0.80E-01    1.4     0.00008475     -5775.1413832619 -8.96E-03

  Leaving inner SCF loop after reaching    40 steps.


  Electronic density on regular grids:      -1534.9999999999        0.0000000001
  Core density on regular grids:             1535.9999999995       -0.0000000005
  Total charge density on r-space grids:        0.9999999996
  Total charge density g-space grids:           0.9999999996

  Overlap energy of the core charge distribution:               0.00000000000318
  Self energy of the core charge distribution:             -12156.89556134359555
  Core Hamiltonian energy:                                   3283.17327730057423
  Hartree energy:                                            4011.36734202298248
  Exchange-correlation energy:                               -926.06334173247160

  DFT+U energy:                                                13.27690049060374

  Total energy:                                             -5775.14138326190368

  outer SCF iter =    1 RMS gradient =   0.85E-04 energy =      -5775.1413832619

  ----------------------------------- OT ---------------------------------------
[...]
      -0.38470010     -0.38457662     -0.38443302     -0.38438334
      -0.38430652     -0.38423015     -0.38405705     -0.38174673
      -0.37967300     -0.37727484     -0.37565843     -0.37544225
      -0.37529473     -0.37509868     -0.37363808     -0.37354531
      -0.37329154     -0.37267466     -0.37252301     -0.37205267
      -0.37202253     -0.37179204     -0.37141657     -0.37119152
      -0.37105983     -0.37091060     -0.37079026     -0.37058134
      -0.37018367     -0.37009736     -0.36975633     -0.36971025
      -0.36960775     -0.36913654     -0.36908864     -0.36899959
      -0.36897636     -0.36873998     -0.36854432     -0.36794500
      -0.36723500     -0.36695143     -0.36688582     -0.36683271
      -0.36669912     -0.36655227     -0.36644504     -0.36635040
      -0.36540964     -0.36539714     -0.36524540     -0.36485905
      -0.36431941     -0.36395043     -0.36389576     -0.36380274
      -0.36378440     -0.36363188     -0.36360190     -0.36358871
      -0.36356061     -0.36292383     -0.36261831     -0.36238885
      -0.36200502     -0.36157153     -0.36152376     -0.36127068
      -0.36088613     -0.36054645     -0.36048182     -0.36036847
      -0.35995289     -0.35988052     -0.35974355     -0.35971286
      -0.35961184     -0.35960540     -0.35950978     -0.35928672
      -0.35915433     -0.35903615     -0.35893823     -0.35889779
      -0.35872893     -0.35869907     -0.35868928     -0.35855992
      -0.35670156     -0.35656182     -0.35649510     -0.35632258
      -0.35622052     -0.35577841     -0.35547063     -0.35540576
      -0.02720258      0.01717929      0.02258445      0.02568591
       0.02619078      0.02649913      0.02671027      0.02681597
       0.02689939      0.02709423      0.02794291      0.02805834
       0.02808677      0.02816072      0.02841698      0.02844170
       0.02852044      0.02874465      0.02884926      0.02917325
       0.02929371      0.02946103      0.02957134      0.02970549
       0.02982282      0.02999702      0.03019939      0.03041338
       0.03044067      0.03079306      0.03092631      0.03134858
       0.03155539      0.03201487      0.03225757      0.03231159
       0.03247237      0.03250407      0.03260185      0.03262672
       0.03298079      0.03318403      0.03330831      0.03353445
       0.03390181      0.03494650      0.03514392      0.03538455
       0.03547261      0.03660470      0.03928108      0.03958870
       0.03964911      0.04021391      0.04041836      0.04061154
       0.04070067      0.04090535      0.04142764      0.04149255
       0.04175409      0.04181188      0.04183417      0.04195129
       0.04203489      0.04206547      0.04214462      0.04240816
       0.04257392      0.04287152      0.04354011      0.04410406
       0.04429370      0.04526214      0.04832049      0.04885867
       0.05080050      0.05129907      0.05145306      0.05164644
       0.05175180      0.05186381      0.05193367      0.05237926
       0.05257619      0.05263623      0.05306297      0.05330370
       0.05359987      0.05400054      0.05413385      0.05435955
       0.05443333      0.05485398      0.05533304      0.05545418
       0.05553045      0.05615054      0.05635644      0.05658906
       0.05668736      0.05675922      0.05684984      0.05696928
       0.05715549      0.05722962      0.05726269      0.05731331
       0.05745014      0.05812326      0.05825771      0.05849275
       0.06161130      0.06357591      0.06401719      0.06437263
       0.06467592      0.06499888      0.06502339      0.06509747
       0.06513669      0.06528599      0.06535985      0.06544191
       0.06569716      0.06669417      0.06687542      0.06717934
       0.06754806      0.07214687      0.07316186      0.07342724
       0.07368457      0.07598273      0.07626891      0.07629280
       0.07648408      0.07743807      0.07795790      0.07800864
       0.07809779      0.07817162      0.07824292      0.07853706
       0.07859045      0.07874860      0.07888598      0.07904130
       0.07911515      0.07942894      0.07965238      0.07967144
       0.08175490      0.08526268      0.08573458      0.08606530
       0.08643061      0.08676643      0.08688893      0.08702124
       0.08725271      0.08734225      0.08740580      0.08751752
       0.08992693      0.09035389      0.09236654      0.09240481
       0.09244392      0.09314882      0.09326383      0.09341320
       0.09353383      0.09398865      0.09608895      0.09686439
       0.09716842      0.09744073      0.09759517      0.09843273
       0.09848180      0.09852743      0.09916625      0.09933607
       0.09938713      0.09958537      0.09966601      0.09998188
       0.10015769      0.10041273      0.10098649      0.10122051
       0.10167671      0.10186537      0.10256754      0.10262091
       0.10323762      0.10372119      0.10386911      0.10398163
       0.10413501      0.10447283      0.10464331      0.10487090
       0.10516571      0.10557970      0.10591624      0.10729416
       0.10788696      0.10810910      0.10850094      0.10856155
       0.10919812      0.10926619      0.10935613      0.10944023
       0.10961915      0.10971675      0.10978150      0.10999769
       0.11030657      0.11072614      0.11082006      0.11122459
       0.11127566      0.11157825      0.11176620      0.11181744
       0.11196305      0.11222282      0.11229054      0.11261787
       0.11261992      0.11275999      0.11293098      0.11317151
       0.11323071      0.11379650      0.11411718      0.11420288
       0.11431502      0.11459747      0.11497798      0.11502732
       0.11548189      0.11561211      0.11567863      0.11573596
       0.11629056      0.11654808      0.11691406      0.11735868
       0.11739919      0.11912689      0.11980872      0.12046467
       0.12091875      0.12280410      0.12290353      0.12297221
       0.12343085      0.12400837      0.12988555      0.13189983
       0.13283094      0.13292598      0.13335856      0.13384408
       0.13442132      0.13446940      0.13663509      0.13720764
       0.13904774      0.13935419      0.13940241      0.13986201
       0.13999305      0.14001989      0.14031151      0.14123443
       0.14144187      0.14208325      0.14252364      0.14280591
       0.14288044      0.14300672      0.14393973      0.14414381
       0.14422331      0.14431756      0.14435777      0.14450607
       0.14483584      0.14523554      0.14547715      0.14577603
       0.14584575      0.14729275      0.14791204      0.14867913
       0.14912412      0.14918733      0.14941597      0.14948512
       0.14964315      0.14982861      0.14996162      0.15000950
       0.15016797      0.15104078      0.15251535      0.15292165
       0.15332141      0.15374805      0.15434014      0.15470380
       0.15477795      0.15489099      0.15612830      0.15766836
       0.15927708      0.15933098      0.15987585      0.15998178
       0.16032854      0.16086038      0.16104877      0.16109472
       0.16124202      0.16135519      0.16142002      0.16187788
       0.16219022      0.16226602      0.16227606      0.16235646
       0.16239175      0.16295319      0.16337610      0.16403805
       0.16417692      0.16455911      0.16517435      0.16519598
       0.16526256      0.16549711      0.16584828      0.16597331
       0.16618632      0.16626814      0.16646077      0.16681352
       0.16694966      0.16710075      0.16746138      0.16840227
       0.16851522      0.16863328      0.16885609      0.16886273
       0.16896220      0.16902738      0.16911468      0.16949541
       0.16991565      0.17002349      0.17226187      0.17378113
       0.17412032      0.17447740      0.17477792      0.17481911
       0.17503938      0.17524882      0.17592767      0.17595957
       0.17611954      0.17614923      0.17985082      0.18059643
       0.18099431      0.18132486      0.18147964      0.18155393
 Fermi Energy [eV] :    4.940334
  
  Eigenvalues of the occupied subspace spin            2
 ---------------------------------------------
      -1.93981606     -1.93931350     -1.93849064     -1.93845975
      -1.93825017     -1.93805015     -1.93797251     -1.93778434
      -1.93776995     -1.93774729     -1.93766244     -1.93757515
      -1.93755689     -1.93744371     -1.93740416     -1.93733929
      -1.93726770     -1.93722447     -1.93721577     -1.93710284
      -1.93706263     -1.93702109     -1.93696607     -1.93694767
      -1.93691830     -1.93686214     -1.93682197     -1.93681642
      -1.93679120     -1.93676754     -1.93671317     -1.93665995
      -1.93662279     -1.93659141     -1.93652758     -1.93651908
      -1.93641188     -1.93639522     -1.93632248     -1.93629292
      -1.93626969     -1.93622849     -1.93621700     -1.93615189
      -1.93612686     -1.93608409     -1.93599153     -1.93592940
      -1.93587567     -1.93582359     -1.93580289     -1.93575157
      -1.93571420     -1.93569008     -1.93561904     -1.93552898
      -1.93543779     -1.93542695     -1.93535470     -1.93528998
      -1.93518460     -1.93509581     -1.93497276     -1.93476648
      -1.01792834     -1.01727714     -1.01697638     -1.01680197
      -1.01661543     -1.01640289     -1.01614180     -1.01610356
      -1.01593620     -1.01568658     -1.01564336     -1.01560467
      -1.01550391     -1.01534027     -1.01532034     -1.01520176
      -1.01514862     -1.01506460     -1.01499910     -1.01498669
      -1.01491405     -1.01459695     -1.01440628     -1.01437830
      -1.01426832     -1.01377486     -1.01359765     -1.01356786
      -1.01331407     -1.01317016     -1.01299241     -1.01296716
      -1.01286490     -1.01278808     -1.01278128     -1.01275878
      -1.01268734     -1.01258939     -1.01249878     -1.01248576
      -1.01242452     -1.01238354     -1.01235741     -1.01207364
      -1.01204692     -1.01197509     -1.01178088     -1.01152265
      -1.01139215     -1.01130485     -1.01112029     -1.01103530
      -1.01101638     -1.01088733     -1.01076389     -1.01059707
      -1.01054545     -1.01051980     -1.01026958     -1.01021672
      -1.01010311     -1.00996415     -1.00994994     -1.00978737
      -1.00978267     -1.00973262     -1.00968624     -1.00964766
      -1.00960008     -1.00953174     -1.00948094     -1.00945777
      -1.00938496     -1.00932336     -1.00921677     -1.00913162
      -1.00908419     -1.00906305     -1.00903956     -1.00896812
      -1.00892215     -1.00886618     -1.00881832     -1.00877335
      -1.00875795     -1.00871716     -1.00867408     -1.00864101
      -1.00856011     -1.00852372     -1.00849477     -1.00845592
      -1.00844103     -1.00842364     -1.00836298     -1.00831972
      -1.00824559     -1.00820913     -1.00816244     -1.00814799
      -1.00809355     -1.00806108     -1.00802835     -1.00801916
      -1.00796154     -1.00792788     -1.00785748     -1.00779835
      -1.00777718     -1.00771525     -1.00765057     -1.00759776
      -1.00756166     -1.00751653     -1.00743016     -1.00741926
      -1.00731221     -1.00727495     -1.00721216     -1.00720311
      -1.00717495     -1.00716271     -1.00707923     -1.00675885
      -1.00674933     -1.00662321     -1.00647755     -1.00642986
      -1.00631746     -1.00610173     -1.00603314     -1.00586760
      -1.00578100     -1.00568732     -1.00561139     -1.00555515
      -1.00549297     -1.00540993     -1.00538575     -1.00536888
      -1.00529487     -1.00522754     -1.00516803     -1.00514597
      -1.00506426     -1.00497679     -1.00493685     -1.00491325
      -1.00486897     -1.00483694     -1.00479664     -1.00477374
      -1.00473780     -1.00468337     -1.00465132     -1.00456067
      -1.00448838     -1.00446128     -1.00441577     -1.00438486
      -1.00433048     -1.00422594     -1.00420570     -1.00416667
      -1.00414709     -1.00411323     -1.00406050     -1.00404091
      -1.00400904     -1.00385830     -1.00381252     -1.00379178
      -1.00377066     -1.00371653     -1.00367991     -1.00356063
      -1.00349946     -1.00334066     -1.00332396     -1.00326191
      -1.00325187     -1.00316741     -1.00308291     -1.00288407
      -1.00279900     -1.00276455     -1.00271601     -1.00246073
      -1.00228051     -1.00224962     -1.00195459     -1.00178768
      -0.42103179     -0.41227756     -0.41169683     -0.41154117
      -0.41143119     -0.40210283     -0.40158191     -0.40089205
      -0.40079684     -0.40045888     -0.40021515     -0.39988388
      -0.39984407     -0.39941101     -0.39917212     -0.39804603
      -0.39786560     -0.39783186     -0.39770909     -0.38924525
      -0.38841159     -0.38748556     -0.38737830     -0.38735342
      -0.38718652     -0.38691412     -0.38686595     -0.38610845
      -0.38588039     -0.38535667     -0.38521394     -0.38470782
      -0.38457812     -0.38444412     -0.38434869     -0.38425978
      -0.38405970     -0.38404408     -0.38403015     -0.38002324
      -0.37769265     -0.37574801     -0.37533045     -0.37521571
      -0.37495722     -0.37382271     -0.37324121     -0.37297650
      -0.37233654     -0.37222976     -0.37184259     -0.37169071
      -0.37144579     -0.37135748     -0.37118556     -0.37110614
      -0.37091925     -0.37078162     -0.37056347     -0.37012549
      -0.37007508     -0.36962796     -0.36945224     -0.36910983
      -0.36898529     -0.36897643     -0.36891374     -0.36882500
      -0.36861080     -0.36843952     -0.36828921     -0.36736262
      -0.36688259     -0.36679069     -0.36659325     -0.36654514
      -0.36645989     -0.36636455     -0.36613883     -0.36546730
      -0.36530247     -0.36484662     -0.36457944     -0.36411575
      -0.36395817     -0.36383367     -0.36379667     -0.36363362
      -0.36359778     -0.36358870     -0.36355711     -0.36343961
      -0.36247417     -0.36239224     -0.36221260     -0.36209241
      -0.36160083     -0.36107149     -0.36101672     -0.36091569
      -0.36054044     -0.36047133     -0.36000484     -0.35990617
      -0.35966189     -0.35964088     -0.35956820     -0.35953146
      -0.35937344     -0.35930502     -0.35919338     -0.35903615
      -0.35893602     -0.35892696     -0.35880099     -0.35869536
      -0.35867563     -0.35850384     -0.35838501     -0.35678942
      -0.35656259     -0.35647117     -0.35624011     -0.35613270
      -0.35548054     -0.35543937     -0.35536217     -0.34484365
       0.02530600      0.02548823      0.02596900      0.02656487
       0.02659912      0.02684454      0.02703960      0.02719327
       0.02809042      0.02814199      0.02818727      0.02823057
       0.02860953      0.02872299      0.02880249      0.02888818
       0.02903270      0.02925459      0.02929740      0.02955938
       0.02962028      0.02982929      0.03001007      0.03014213
       0.03043420      0.03057684      0.03063721      0.03095278
       0.03120495      0.03129021      0.03159091      0.03196496
       0.03228971      0.03238381      0.03243987      0.03251179
       0.03258403      0.03267419      0.03270815      0.03278127
       0.03311935      0.03342022      0.03348102      0.03366733
       0.03528798      0.03548472      0.03557990      0.03569634
       0.03826969      0.03930334      0.03999622      0.04025465
       0.04056510      0.04063762      0.04084173      0.04141906
       0.04150800      0.04153890      0.04176018      0.04179178
       0.04185561      0.04198723      0.04205157      0.04222137
       0.04226818      0.04237338      0.04254313      0.04256719
       0.04343914      0.04414869      0.04431866      0.04489860
       0.04527330      0.05037777      0.05041562      0.05136793
       0.05151012      0.05175976      0.05180853      0.05195374
       0.05201362      0.05235292      0.05245872      0.05265641
       0.05283469      0.05293403      0.05335951      0.05399629
       0.05409256      0.05444252      0.05448429      0.05492781
       0.05538008      0.05559162      0.05563416      0.05616220
       0.05635572      0.05668365      0.05670409      0.05677686
       0.05685596      0.05706997      0.05710010      0.05717068
       0.05721155      0.05727674      0.05730195      0.05780321
       0.05829099      0.05830362      0.05842741      0.06348589
       0.06402809      0.06467107      0.06487122      0.06498966
       0.06505018      0.06518063      0.06523206      0.06530542
       0.06534037      0.06541217      0.06549263      0.06566237
       0.06677859      0.06698174      0.06723709      0.06754090
       0.07286105      0.07319146      0.07363806      0.07385907
       0.07617696      0.07698680      0.07710977      0.07729966
       0.07804880      0.07817287      0.07824951      0.07836586
       0.07844976      0.07849552      0.07852173      0.07883012
       0.07886417      0.07909295      0.07931875      0.07940530
       0.07968919      0.07981235      0.07991175      0.08118577
       0.08596980      0.08616573      0.08668339      0.08689799
       0.08691575      0.08704475      0.08712423      0.08753672
       0.08761557      0.08769864      0.08792695      0.08923092
       0.09233634      0.09246271      0.09262780      0.09275810
       0.09346492      0.09354786      0.09358806      0.09421067
       0.09619467      0.09665570      0.09716993      0.09725964
       0.09805508      0.09854218      0.09884943      0.09891013
       0.09903820      0.09942851      0.09946080      0.09978698
       0.09984693      0.09987896      0.10001297      0.10013709
       0.10132448      0.10139820      0.10167630      0.10184478
       0.10248004      0.10344075      0.10368191      0.10375381
       0.10389796      0.10416465      0.10444602      0.10473346
       0.10508516      0.10514674      0.10533737      0.10570580
       0.10598924      0.10686924      0.10796465      0.10860658
       0.10862811      0.10903791      0.10914710      0.10925895
       0.10934677      0.10957540      0.10962290      0.10972862
       0.10975936      0.10999101      0.11009420      0.11048178
       0.11120063      0.11150075      0.11171861      0.11189455
       0.11190293      0.11202213      0.11204326      0.11210906
       0.11235200      0.11265426      0.11268893      0.11275087
       0.11291838      0.11318443      0.11321808      0.11377441
       0.11402068      0.11436532      0.11461102      0.11485167
       0.11501002      0.11516121      0.11535932      0.11568110
       0.11571589      0.11668421      0.11678565      0.11682846
       0.11749060      0.11773336      0.11777720      0.11791165
       0.11801667      0.12099326      0.12109596      0.12113611
       0.12253742      0.12301460      0.12349936      0.12355574
       0.12363219      0.13270985      0.13318171      0.13405078
       0.13416352      0.13439230      0.13455169      0.13524337
       0.13638440      0.13650672      0.13790347      0.13942359
       0.13943364      0.13984593      0.14007896      0.14012282
       0.14115097      0.14129213      0.14136125      0.14253240
       0.14288785      0.14341914      0.14359665      0.14369251
       0.14404775      0.14417682      0.14440243      0.14459157
       0.14473176      0.14488637      0.14491833      0.14502116
       0.14587641      0.14630462      0.14631666      0.14653189
       0.14727567      0.14894288      0.14927923      0.14963501
       0.14966949      0.14981312      0.14983633      0.14996966
       0.15004347      0.15064969      0.15078561      0.15086530
       0.15196352      0.15349418      0.15399303      0.15452747
       0.15475557      0.15497112      0.15526322      0.15572287
       0.15584126      0.15630407      0.15744263      0.15962377
       0.16020350      0.16074751      0.16111715      0.16122096
       0.16123549      0.16145632      0.16154093      0.16188122
       0.16197806      0.16229076      0.16236085      0.16241130
       0.16257667      0.16270956      0.16307429      0.16322115
