     192
 i =        9, E =     -5775.4821841907
Ti         0.0000250191        0.0003347118       -0.0002194443
Ti         0.0004374425        0.0003364990       -0.0003000924
Ti         0.0005091529        0.0008421148        0.0011129827
Ti         0.0003488311        0.0004934170        0.0006131793
Ti         0.0004322601        0.0001163621       -0.0001913075
Ti         0.0013850278        0.0011117333        0.0002864114
Ti        -0.0001311386        0.0010676014        0.0017535977
Ti        -0.0001215870        0.0007101609       -0.0003695023
Ti         0.0004568513       -0.0001370243        0.0001061564
Ti        -0.0009600711        0.0021777854        0.0003701681
Ti        -0.0000350646        0.0003645824       -0.0000042486
Ti         0.0012749822        0.0029189147       -0.0006588568
Ti        -0.0006484062        0.0006945674        0.0000040339
Ti        -0.0000615361        0.0012164741       -0.0014828559
Ti         0.0003262689        0.0025109315        0.0013888995
Ti         0.0001072631        0.0001767819        0.0000108282
Ti         0.0003860567       -0.0005225653       -0.0002742013
Ti         0.0304388410        0.0038165397        0.0083658790
Ti         0.0000377151       -0.0009395765        0.0013174697
Ti         0.0070044037        0.0006950591       -0.0042621856
Ti        -0.0022321693       -0.0028975575       -0.0010172354
Ti         0.0013380809       -0.0011241195        0.0004854997
Ti        -0.0002569981        0.0004772575        0.0001358960
Ti        -0.0007722521        0.0008330459       -0.0003507697
Ti         0.0005161206       -0.0008150960       -0.0003935334
Ti        -0.0020746770       -0.0023444311        0.0037095862
Ti        -0.0005696953        0.0005827558       -0.0004020860
Ti        -0.0005067783        0.0007358291        0.0001718618
Ti         0.0003794464       -0.0001784700       -0.0000658919
Ti        -0.0003226345        0.0042581940       -0.0043490396
Ti        -0.0004784237       -0.0008429940        0.0013858699
Ti         0.0002774475       -0.0000392130       -0.0034023580
Ti        -0.0001195829        0.0002971650        0.0007009386
Ti        -0.0000723206        0.0009753415       -0.0002219115
Ti         0.0002314087       -0.0002935902        0.0000406705
Ti        -0.0288673976       -0.0078276964        0.0085968555
Ti         0.0013967570        0.0019297385        0.0036472484
Ti         0.0000993035        0.0001480350        0.0000182774
Ti         0.0021101634        0.0004958543        0.0007791291
Ti        -0.0003002321       -0.0010000076       -0.0014876203
Ti         0.0000569041        0.0004560272        0.0006463979
Ti        -0.0004084670        0.0004183548       -0.0000205714
Ti        -0.0006132758       -0.0008693071       -0.0321685838
Ti         0.0004113005       -0.0004274327        0.0001541366
Ti         0.0007219233       -0.0007825708        0.0000184546
Ti         0.0001142421       -0.0045653246       -0.0037919539
Ti         0.0002664815        0.0001391910       -0.0001901766
Ti        -0.0069860329       -0.0014684543       -0.0034748729
Ti        -0.0008501948       -0.0016113375        0.0016801911
Ti         0.0006976310       -0.0009301553       -0.0000586193
Ti        -0.0005469992       -0.0000885609       -0.0003412937
Ti        -0.0003663112       -0.0009875425        0.0007109541
Ti         0.0008645859       -0.0023197573       -0.0002789978
Ti         0.0004204657       -0.0005756308       -0.0003849189
Ti         0.0002576859       -0.0007512765        0.0008165107
Ti        -0.0001026242        0.0004960411       -0.0001343620
Ti        -0.0006600518        0.0006236009        0.0001331502
Ti        -0.0002945873        0.0004010822       -0.0000848320
Ti        -0.0001805666        0.0006375256        0.0000064849
Ti        -0.0013436073        0.0006373409        0.0001643047
Ti         0.0019613536       -0.0000924262       -0.0000434005
Ti        -0.0018943805       -0.0013369753        0.0006828203
Ti         0.0009996194       -0.0012288818       -0.0007574547
Ti        -0.0003374542        0.0004174404        0.0013418028
O         0.0009261391        0.0001801918        0.0001880004
O         0.0003470968       -0.0006608585        0.0003774245
O        -0.0003773506        0.0004812760       -0.0005693690
O        -0.0008977581        0.0018930171       -0.0001044488
O         0.0007682086       -0.0009196255        0.0000574884
O         0.0000402538       -0.0034701640       -0.0017189756
O        -0.0006499463        0.0004458169        0.0002203319
O        -0.0006676159        0.0026060473       -0.0000075022
O         0.0003876185        0.0005422110        0.0009474234
O         0.0010534854       -0.0023168845       -0.0007883276
O         0.0004920248        0.0003537712       -0.0004138574
O         0.0000699566        0.0001826334        0.0006064054
O         0.0003164606        0.0000741230       -0.0002678283
O        -0.0024416090       -0.0097178959       -0.0017369624
O         0.0000487868        0.0000903536       -0.0001117673
O         0.0002582181        0.0019467100        0.0003413397
O        -0.0001972497        0.0004637726       -0.0003776592
O        -0.0000202199        0.0005679448        0.0006609574
O        -0.0007152156        0.0039501702       -0.0014780329
O        -0.0003045353        0.0002174470        0.0000519348
O         0.0003637765        0.0008581055        0.0003631963
O         0.0040299991       -0.0014944164       -0.0035082242
O         0.0005595713        0.0016980841       -0.0013577026
O         0.0009697201       -0.0000800814        0.0021542101
O         0.0019138398        0.0016738584        0.0002616115
O         0.0008184741        0.0021891007       -0.0003743170
O         0.0003867451        0.0000998070        0.0000590035
O         0.0015051101        0.0008287007        0.0002532507
O         0.0007185597        0.0011580141        0.0001541108
O        -0.0009293862        0.0099638205       -0.0033189189
O         0.0005963804        0.0001666193        0.0001813794
O         0.0006801642        0.0004540964       -0.0003865144
O         0.0007986175       -0.0005882721        0.0001481934
O        -0.0000239867       -0.0021319321        0.0013503725
O        -0.0002776266       -0.0003612299       -0.0003596390
O        -0.0133390859       -0.0010855813        0.0040190519
O        -0.0001079316       -0.0026198559       -0.0003388482
O         0.0003886728       -0.0004296517       -0.0002579892
O        -0.0006394933       -0.0001614367       -0.0000413386
O        -0.0042476061       -0.0006056978        0.0054518337
O        -0.0002622648       -0.0018103249       -0.0015755739
O         0.0000128763       -0.0004329704        0.0000769954
O         0.0000007553       -0.0004562424        0.0001409446
O        -0.0013212188       -0.0003317095        0.0005862182
O        -0.0005893467        0.0001375005       -0.0000999073
O        -0.0013176061        0.0011403467       -0.0022110825
O        -0.0002751810       -0.0000442069        0.0004358830
O        -0.0018711606        0.0003782774        0.0002116359
O         0.0001482581        0.0001108044        0.0001953684
O        -0.0002472843       -0.0077599397        0.0008130639
O         0.0005993126       -0.0004547991       -0.0007599597
O        -0.0003073143        0.0001414573        0.0019845642
O         0.0001216533        0.0000117339       -0.0008911239
O         0.0017870902       -0.0014044510        0.0005894995
O        -0.0001502839       -0.0001389102       -0.0002235265
O         0.0044849791        0.0021622312        0.0048732345
O         0.0001969226       -0.0108002916       -0.0035208821
O        -0.0000635338       -0.0000111844       -0.0000850708
O         0.0002829074       -0.0000439997       -0.0019957750
O        -0.0000486509       -0.0002991558        0.0007804869
O        -0.0000347240       -0.0006612228       -0.0002373020
O        -0.0002602334       -0.0010820007        0.0012292889
O        -0.0011659478        0.0008295495        0.0122468265
O        -0.0003900302       -0.0001474452        0.0001547912
O        -0.0001455819        0.0004627185       -0.0000386936
O        -0.0036347179        0.0031272944       -0.0029024083
O        -0.0000703736       -0.0004061397       -0.0007277924
O        -0.0008629237        0.0003167968        0.0005560965
O         0.0000595097        0.0038910178       -0.0024370396
O        -0.0001227254        0.0000803249        0.0006452696
O        -0.0003372597       -0.0000092589       -0.0001337196
O        -0.0000467036        0.0020370695        0.0035041185
O         0.0003126985        0.0001360615        0.0144510243
O         0.0001060463        0.0006498177       -0.0001615771
O         0.0000196162        0.0002634703       -0.0009380145
O         0.0004712162       -0.0005401327        0.0006168723
O         0.0012114470       -0.0001213648       -0.0013190395
O         0.0002993452        0.0015502873        0.0011690655
O         0.0013545772        0.0012746209       -0.0012251677
O        -0.0000416835       -0.0001305955        0.0001472443
O         0.0003598156        0.0008232839       -0.0001635642
O         0.0009476604        0.0078646442        0.0001473054
O         0.0002880800       -0.0003139286        0.0001758277
O         0.0108305495        0.0028554385        0.0029970924
O         0.0005319103        0.0021871055       -0.0000635265
O         0.0010712579        0.0011451921        0.0005854708
O         0.0007270155       -0.0003792747        0.0004470561
O        -0.0000356707        0.0004447674       -0.0022819348
O         0.0019881335        0.0116224238       -0.0026282822
O        -0.0001841565        0.0006808219        0.0002751014
O        -0.0002146940        0.0006895844       -0.0003783843
O        -0.0008087278        0.0000706225        0.0001554875
O         0.0006434860       -0.0006798735       -0.0003477266
O         0.0007955176        0.0004976651        0.0006488461
O         0.0003140808       -0.0002941896       -0.0001641380
O         0.0021087598        0.0007920566       -0.0003952102
O        -0.0003568969       -0.0005950304        0.0000988505
O        -0.0002672461       -0.0008598177        0.0006646455
O        -0.0011645024       -0.0008456140       -0.0010830573
O        -0.0016354306       -0.0004533093        0.0007679863
O        -0.0005948635       -0.0008868793       -0.0001426205
O        -0.0001226612       -0.0006115207       -0.0003928792
O        -0.0024112345       -0.0003866720       -0.0008056384
O         0.0002873493       -0.0017752409       -0.0000677614
O        -0.0002316886       -0.0001921730        0.0002495952
O        -0.0007291044       -0.0019970980       -0.0001249156
O         0.0017814146       -0.0006295569       -0.0044321285
O        -0.0001931733       -0.0000497718        0.0008684994
O        -0.0002972427       -0.0000740632       -0.0003831457
O        -0.0010840280       -0.0008863603        0.0003915775
O        -0.0002290943       -0.0000244951       -0.0011288106
O         0.0010723839       -0.0034483669       -0.0002521604
O        -0.0007197496       -0.0003064436       -0.0005093186
O         0.0000038695       -0.0015961555        0.0041243840
O         0.0007409829       -0.0055584939       -0.0014213304
O        -0.0009226910       -0.0001991192        0.0007357268
O        -0.0003865863        0.0004692489        0.0001959361
O        -0.0014944751        0.0005565666       -0.0010805889
O        -0.0006427131        0.0003047634       -0.0000641047
O        -0.0010461691        0.0003851049        0.0019692497
O        -0.0012646315        0.0006059335        0.0001047878
O        -0.0014202349        0.0023237798       -0.0014307501
O         0.0006329307       -0.0000720307        0.0009223279
O         0.0009841102       -0.0032939079       -0.0003641258
O        -0.0009480725        0.0010356371        0.0003313192
O        -0.0026089611        0.0014293200        0.0008734027
O         0.0020166008       -0.0000218313        0.0010406303
O         0.0000702288       -0.0004884592       -0.0007757323
     192
 i =       10, E =     -5775.4917259405
Ti        -0.0025743446       -0.0067746002        0.0009183233
Ti        -0.0004871028       -0.0003619373       -0.0000116053
Ti        -0.0000828559       -0.0020142702       -0.0002534759
Ti        -0.0020504013        0.0001751585        0.0014273074
Ti        -0.0004916599        0.0008760705       -0.0011385827
Ti        -0.0011262528        0.0002637640       -0.0005007966
Ti         0.0001047536       -0.0005719484       -0.0001801805
Ti        -0.0000391547        0.0001049223        0.0003205322
Ti        -0.0008980404        0.0001368379        0.0007744629
Ti        -0.0029080625       -0.0013013539       -0.0062064474
Ti         0.0000226432        0.0000091904       -0.0001010204
Ti         0.0030427610       -0.0021931712       -0.0013268840
Ti        -0.0014240774        0.0002692789       -0.0001924036
Ti         0.0000336268       -0.0001506119       -0.0005434747
Ti        -0.0001379022       -0.0015829932        0.0034110004
Ti        -0.0003277212       -0.0003153780       -0.0002629463
Ti        -0.0006095755        0.0004820708       -0.0000742069
Ti        -0.0050749702        0.0025937786       -0.0002821896
Ti        -0.0002493168        0.0013699994       -0.0004508968
Ti        -0.0018082084       -0.0005376347       -0.0040008404
Ti        -0.0047159726        0.0035541897       -0.0009740193
Ti        -0.0013399384       -0.0005291092       -0.0000402084
Ti         0.0005011496       -0.0002175458       -0.0003243806
Ti         0.0020125791       -0.0002815420        0.0009667044
Ti        -0.0025046572        0.0003802357        0.0010096630
Ti        -0.0038884493        0.0017336871       -0.0032724663
Ti         0.0002471549       -0.0002281322        0.0000429622
Ti         0.0009775656       -0.0001271907        0.0001438113
Ti        -0.0003281142        0.0000432045       -0.0002150466
Ti        -0.0002639720        0.0034146896       -0.0018683941
Ti         0.0001291284        0.0038818686       -0.0002074638
Ti         0.0002013310       -0.0000743490       -0.0042152619
Ti        -0.0002848232        0.0005212889        0.0021589354
Ti        -0.0008199123        0.0001473890       -0.0005385846
Ti         0.0001994069        0.0001757066       -0.0001528349
Ti         0.0035210638       -0.0130375984        0.0020076799
Ti         0.0026296388       -0.0039559853       -0.0020243265
Ti         0.0001502129        0.0001247673        0.0004002938
Ti         0.0013135395       -0.0003019389        0.0016675938
Ti        -0.0003765547        0.0007142290       -0.0006350860
Ti         0.0001102301        0.0005756381        0.0000097080
Ti         0.0003872965       -0.0001116358       -0.0013079812
Ti        -0.0003160610       -0.0001859020        0.0016536924
Ti        -0.0003380333        0.0005109558       -0.0002730842
Ti        -0.0008512803        0.0001928175        0.0002042490
Ti        -0.0002720587       -0.0040298273       -0.0027789853
Ti         0.0006360904        0.0008837613       -0.0006040247
Ti         0.0015991779        0.0002492454       -0.0032538747
Ti        -0.0009087051        0.0015804174        0.0049552977
Ti        -0.0006978052       -0.0005053708       -0.0008372195
Ti         0.0005738442        0.0008951602        0.0000379080
Ti         0.0002501162       -0.0001886307        0.0017193496
Ti         0.0027860770        0.0002764984       -0.0132634661
Ti         0.0005784556        0.0000636906        0.0004429165
Ti         0.0003586641       -0.0009368910       -0.0000737962
Ti         0.0025841447        0.0139915804        0.0027758741
Ti         0.0008417594        0.0004342923        0.0009391872
Ti         0.0009341556       -0.0001764906       -0.0009113290
Ti         0.0006110913        0.0005091349       -0.0001569322
Ti         0.0010703061       -0.0000923300        0.0000146435
Ti         0.0032419534       -0.0000713044       -0.0002461227
Ti         0.0010912805       -0.0007363850       -0.0013006099
Ti         0.0018812935       -0.0006260011       -0.0008216692
Ti         0.0026132414       -0.0000763762        0.0029032549
O         0.0001851598        0.0018379340        0.0006917783
O         0.0003381186        0.0011937311       -0.0005098435
O         0.0004398760       -0.0000063760        0.0000254295
O         0.0039069091       -0.0003433033       -0.0007511961
O        -0.0000412684        0.0003581751       -0.0003092306
O         0.0002056565        0.0032982115        0.0002466601
O         0.0010267362        0.0001365802        0.0001668659
O         0.0017464191       -0.0008261829       -0.0017677375
O         0.0000148059       -0.0006845623       -0.0000687534
O         0.0001718792        0.0004121061       -0.0003183213
O        -0.0001884328        0.0000636647       -0.0001498481
O         0.0001933032        0.0002711220       -0.0004090825
O         0.0000679773       -0.0000726992        0.0001106495
O         0.0029663587        0.0019299531        0.0048296518
O         0.0000454205        0.0001570302        0.0002617437
O        -0.0015524015       -0.0005298013       -0.0012554112
O         0.0007450233       -0.0001924075        0.0000616030
O        -0.0002907169        0.0001076801        0.0004766910
O        -0.0015147398        0.0014087623       -0.0010775865
O         0.0003511622        0.0000120200       -0.0000420749
O         0.0003458774       -0.0004284442       -0.0005086752
O         0.0024482632        0.0002376867        0.0025028267
O         0.0000530601       -0.0017450544        0.0006306330
O        -0.0000889731        0.0002707111        0.0011494991
O        -0.0004728285       -0.0005726747        0.0007760675
O         0.0007134200       -0.0004548202       -0.0007841261
O        -0.0002888663        0.0001236477       -0.0000050232
O        -0.0027465599       -0.0003230110       -0.0000224249
O         0.0001283375        0.0002066436       -0.0001715344
O         0.0003753549       -0.0034667041        0.0027171408
O        -0.0008514802        0.0002746103        0.0004606736
O        -0.0004494415       -0.0000583430        0.0000895968
O        -0.0003846181        0.0003426506        0.0003492063
O         0.0000489099        0.0013049092       -0.0007474564
O         0.0006481049       -0.0003319537       -0.0001371936
O        -0.0018232201        0.0010442888        0.0039745988
O         0.0001715465       -0.0008430668       -0.0013229743
O         0.0000860770        0.0006071675        0.0002248967
O         0.0011068404       -0.0003542351        0.0004551580
O         0.0050343414        0.0005136560       -0.0051198069
O        -0.0000684155        0.0020586811        0.0002894121
O        -0.0000412063        0.0003564103       -0.0000746756
O        -0.0000320949        0.0000534066       -0.0001493754
O         0.0002549173        0.0003530710        0.0003702494
O         0.0010309491       -0.0003255039        0.0001164403
O         0.0005620550        0.0000061547        0.0008252677
O         0.0007492068       -0.0001612471       -0.0003320067
O         0.0046512902        0.0007269905        0.0008027753
O         0.0000594945       -0.0000394920       -0.0000284122
O         0.0006283421        0.0033698018       -0.0033750524
O        -0.0001595811       -0.0003636579        0.0002243425
O        -0.0004313246        0.0000992229        0.0008445875
O        -0.0000562672       -0.0002210626       -0.0005465726
O        -0.0003765967        0.0001199868        0.0000175736
O        -0.0003015450       -0.0002194603        0.0003823512
O        -0.0051964930       -0.0008351274       -0.0054086791
O         0.0004292975        0.0056479920        0.0024996003
O         0.0000080937       -0.0000766427        0.0000444511
O         0.0019708235        0.0002695281       -0.0018387037
O         0.0007634160       -0.0004144417        0.0003875104
O        -0.0000283352        0.0002165240       -0.0005449123
O        -0.0000850139       -0.0001292068        0.0000617546
O         0.0020641643        0.0019986794        0.0098541807
O         0.0002976641       -0.0001716091       -0.0000995350
O         0.0000045076       -0.0001347805       -0.0001031482
O        -0.0024891633        0.0027774418        0.0036831545
O         0.0002873855        0.0000340634        0.0003491511
O         0.0001119192        0.0000951141       -0.0000634782
O        -0.0002706812       -0.0041700104        0.0005430751
O         0.0000012550        0.0002686548        0.0004637814
O         0.0003808208       -0.0000597648       -0.0000150715
O        -0.0007662249        0.0002852644        0.0033008149
O        -0.0002321859        0.0003776522        0.0081531113
O         0.0002190244       -0.0001610499        0.0000494650
O        -0.0000102260        0.0002339671        0.0006908911
O        -0.0003562778        0.0003306493       -0.0005754787
O        -0.0001934511        0.0002116533       -0.0002607213
O         0.0000448029       -0.0019039481       -0.0010682030
O        -0.0001001478        0.0000818017        0.0002659300
O        -0.0001350344        0.0000291798       -0.0002176491
O         0.0000394297        0.0000550134        0.0004090300
O        -0.0011272550       -0.0018579596       -0.0032573612
O        -0.0003723956       -0.0001303390        0.0000815228
O         0.0013420263       -0.0013069640        0.0028493197
O        -0.0003769159        0.0007271894       -0.0015207590
O         0.0003481117       -0.0000335639        0.0001474811
O        -0.0013385151       -0.0004325254        0.0001991104
O        -0.0027328067       -0.0005194878       -0.0020849402
O        -0.0024082109       -0.0006864279        0.0069488328
O         0.0000339605        0.0000542501       -0.0001831788
O         0.0000820867        0.0001207165       -0.0005194864
O        -0.0001176824       -0.0037043435        0.0013199749
O        -0.0011040804        0.0004299356        0.0001737594
O        -0.0001855500       -0.0000549424       -0.0000784541
O        -0.0004001792        0.0001968540       -0.0001309976
O        -0.0037205688        0.0007535990        0.0008005637
O        -0.0001025366        0.0004988060        0.0001756451
O        -0.0003599415        0.0004652027       -0.0006950713
O         0.0004957739       -0.0001517531        0.0002156046
O         0.0037490616       -0.0000061416       -0.0005038232
O        -0.0001262351        0.0004664232       -0.0000369686
O        -0.0002673400        0.0000733285        0.0002237602
O         0.0044764816       -0.0005053923        0.0011966650
O         0.0023523528       -0.0000589590       -0.0013336648
O        -0.0000416124       -0.0002124539       -0.0000415801
O        -0.0006922769        0.0017152549       -0.0011739434
O        -0.0001707932       -0.0002603110        0.0023395645
O        -0.0007770171       -0.0004090383       -0.0007361000
O        -0.0000633857       -0.0001596300        0.0001257277
O        -0.0007069399        0.0010318072        0.0003799836
O        -0.0005678699       -0.0002196901        0.0008587974
O        -0.0015055893       -0.0001126441       -0.0031670438
O         0.0005523251       -0.0001279425        0.0002610686
O         0.0029199928       -0.0000393191        0.0043877372
O         0.0037996741       -0.0022624993       -0.0023723407
O         0.0001320780       -0.0000214399       -0.0000807137
O        -0.0004407076       -0.0014411369       -0.0008920430
O        -0.0000319068        0.0005476945       -0.0001571353
O        -0.0002706823       -0.0009449116        0.0004141871
O         0.0001572048        0.0004425480        0.0009667652
O         0.0002769949        0.0000018305        0.0007313257
O         0.0001772419        0.0001792063       -0.0003667336
O        -0.0001771168       -0.0001201851        0.0001830372
O        -0.0064718352        0.0000309741       -0.0019803534
O         0.0000707827        0.0001815729       -0.0006632312
O         0.0001186433        0.0004429691       -0.0000031067
O        -0.0063615889       -0.0006248613        0.0014949405
O        -0.0010562966        0.0002280826       -0.0001653609
     192
 i =       11, E =     -5775.4942369512
Ti        -0.0007039801       -0.0036956409        0.0009660871
Ti        -0.0002721571       -0.0000971230       -0.0000139163
Ti         0.0001021960       -0.0008048129       -0.0006039638
Ti        -0.0010621708       -0.0002592932        0.0008404161
Ti        -0.0002224074       -0.0000613646        0.0000923115
Ti        -0.0004372029        0.0005975517       -0.0004368027
Ti         0.0001839258       -0.0000299222       -0.0003737054
Ti        -0.0001710918        0.0002044503        0.0002174288
Ti        -0.0003007571       -0.0001517967        0.0000057716
Ti        -0.0008500977       -0.0009555743       -0.0040470310
Ti         0.0000026073        0.0000644924       -0.0001191755
Ti         0.0017027821       -0.0014469825        0.0000493885
Ti        -0.0013371452        0.0000800263       -0.0002920320
Ti        -0.0000140739        0.0002129339       -0.0002872527
Ti         0.0001191277       -0.0015868423        0.0010128292
Ti        -0.0003751834       -0.0001736499       -0.0000927971
Ti        -0.0002355916        0.0000567002       -0.0000375265
Ti        -0.0016508550        0.0021654554       -0.0001527827
Ti        -0.0002628491        0.0004886652       -0.0003930201
Ti        -0.0016691565        0.0003001501       -0.0041112640
Ti        -0.0024608809        0.0018569793       -0.0000100113
Ti        -0.0003299771       -0.0007024482       -0.0003604375
Ti         0.0002755578        0.0000183562       -0.0000266613
Ti         0.0008917108       -0.0003454673        0.0000600653
Ti        -0.0010251779        0.0003180588        0.0003855001
Ti        -0.0019003114        0.0009536922       -0.0018902018
Ti         0.0001040243        0.0000477980        0.0000000355
Ti         0.0005019597        0.0000738355       -0.0000133679
Ti        -0.0001634295       -0.0001151159        0.0000159218
Ti        -0.0000828548        0.0022403370        0.0006869117
Ti        -0.0000351848        0.0018894358       -0.0008673395
Ti         0.0001070919       -0.0000588651       -0.0032305464
Ti        -0.0001998589        0.0004547167        0.0005931618
Ti        -0.0014295976        0.0002381141       -0.0001833658
Ti         0.0001129750       -0.0000062937       -0.0001112683
Ti         0.0001466883       -0.0066232072        0.0009775597
Ti         0.0013685418       -0.0022472411       -0.0016514418
Ti         0.0000613452        0.0001269398        0.0001138449
Ti         0.0018191708        0.0002104783        0.0017022214
Ti        -0.0002722042        0.0000012182       -0.0001519491
Ti         0.0000115673        0.0008324404       -0.0001684394
Ti         0.0001966867        0.0004513655        0.0001066245
Ti        -0.0003193689        0.0001167986       -0.0048856637
Ti        -0.0001548048        0.0000805499        0.0000600180
Ti        -0.0005035373       -0.0000158809       -0.0003131937
Ti        -0.0005009547       -0.0024330467       -0.0000160346
Ti         0.0005958681        0.0002986491       -0.0002607870
Ti         0.0017480263       -0.0004160859       -0.0036859187
Ti        -0.0007582086        0.0012528022        0.0019886251
Ti        -0.0009700743       -0.0003032455        0.0000388532
Ti         0.0001968434        0.0002472241        0.0001463991
Ti        -0.0011046861       -0.0004356929        0.0017103475
Ti         0.0008364715        0.0001626814       -0.0077767704
Ti         0.0004054596       -0.0000830186        0.0004237831
Ti         0.0001484215       -0.0010597712       -0.0002448737
Ti         0.0007078028        0.0077365202        0.0022002843
Ti         0.0002561275        0.0006289773       -0.0000206891
Ti         0.0009906984        0.0000556260       -0.0001654634
Ti         0.0003563637        0.0004879307        0.0001417752
Ti         0.0003087825        0.0005014180       -0.0001049490
Ti         0.0024076457        0.0000000642       -0.0005705967
Ti         0.0005497110       -0.0009273825       -0.0008946440
Ti         0.0019687664       -0.0005329347       -0.0002520508
Ti         0.0011872223        0.0003218584        0.0016679140
O        -0.0002023643        0.0011841578        0.0002839075
O         0.0000087978        0.0001091393       -0.0000070839
O         0.0001651598        0.0000394307       -0.0002489327
O         0.0016941421        0.0004685318       -0.0006765859
O         0.0000174778        0.0003758085       -0.0002543879
O         0.0001290114        0.0014110810       -0.0000464892
O         0.0003385170        0.0000799464        0.0001237658
O         0.0008078748        0.0001183628       -0.0004271502
O         0.0001378688       -0.0000385165        0.0000239243
O         0.0004506619       -0.0000603562       -0.0001923365
O        -0.0001046163       -0.0000080135       -0.0003459942
O         0.0001529283        0.0001217915       -0.0000901533
O         0.0000363641        0.0001206122       -0.0000737026
O        -0.0001495211        0.0022232801        0.0021571243
O         0.0000230680        0.0000350321        0.0000540354
O        -0.0009574656        0.0001055930       -0.0002331625
O         0.0006574281        0.0001784811       -0.0000140444
O        -0.0001279906        0.0000024039        0.0004802687
O        -0.0004150768        0.0000202057       -0.0010416634
O         0.0002674725        0.0000658481       -0.0000055369
O         0.0000183648       -0.0001382803        0.0000240487
O         0.0015600494       -0.0004961844        0.0015213875