     192
 i =        9, E =     -5775.4821841907
Ti         0.0028264014        0.0231924136       -0.0057904250
Ti         1.8894753656        1.8897231394        4.8069480413
Ti         0.0022855410        1.8887066939        2.4052880122
Ti         1.8909609280        0.0046321287        7.2110935800
Ti         0.0024107286        3.7785844995       -0.0001580180
Ti         1.8935623518       13.2395246804        4.8068045282
Ti        11.3492847512        1.8893625028        2.4064809968
Ti         5.6689067345        0.0023334826        7.2164470958
Ti         1.8894409755        3.7761762588        7.2103220140
Ti         0.0053667978       13.2415493941        2.4172847497
Ti         5.6690499785        1.8884064754        4.8029394349
Ti        11.3463876281        0.0170365198       -0.0054128235
Ti         3.7801215759        0.0030091858       -0.0016822970
Ti        13.2371449033        1.8917380653        4.8068453770
Ti        13.2368924195        0.0132872053        7.2101679823
Ti         3.7771750311        1.8890496050        2.4054232040
Ti         1.8895302977        5.6674304012        4.8117941900
Ti         0.0634301914       11.3418171333        0.0161375348
Ti         0.0032026169        5.6669005360        2.3997684213
Ti         1.8878699726       11.3502311718        7.2037922173
Ti         0.0077446248        7.5557918247        0.0039201550
Ti         1.8931430066        9.4604296369        4.8098677712
Ti         7.5688646606        1.8887510438        2.4087370222
Ti         9.4600527298        0.0048898836        7.2137699426
Ti         1.8904817672        7.5663243734        7.2055563297
Ti         0.0096741834        9.4589940914        2.4080598325
Ti         9.4613588057        1.8889851604        4.8054195883
Ti         7.5677023514        0.0031826317       -0.0055066433
Ti         3.7766776629        3.7761721823       -0.0001415360
Ti        13.2363389009       13.2474600273        4.8051294139
Ti        11.3497139626        5.6683737796        2.4034634247
Ti         5.6686258511       11.3509264408        7.2122352022
Ti        13.2376460634        3.7752629645        7.2104551543
Ti         3.7805771321       13.2389391620        2.4058711999
Ti         5.6684217398        5.6680313855        4.8078028251
Ti        11.2917421322       11.3736254640        0.0102370306
Ti        11.3445460334       13.2406988701        2.4124828112
Ti         5.6687093060        3.7757145552        7.2143589267
Ti         3.7949388634       11.3503737894        0.0052958651
Ti        13.2381177951        5.6642184141        4.8117716739
Ti         5.6692920313       13.2381845059        4.8027926304
Ti        11.3497456112        3.7686011300       -0.0028124088
Ti        13.2377933508       11.3514636994        7.1625417134
Ti         3.7767979598        5.6676672426        2.4004954013
Ti         3.7777362096        7.5678580671        0.0046998697
Ti        13.2404221521        9.4537532242        4.8087875307
Ti         7.5680657974        5.6671552748        2.4041422905
Ti         9.4620335887       11.3525931359        7.2048188492
Ti        13.2388206777        7.5572087514        7.2019732455
Ti         3.7794759480        9.4611951538        2.4023481627
Ti         9.4608546141        5.6661813714        4.8103419550
Ti         7.5500254345       11.3518372124        0.0018834484
Ti        11.3468536505        9.4596259312        2.4259723514
Ti         5.6685536302        7.5686969112        7.2096771017
Ti         5.6677823256        9.4623144079        4.8060814779
Ti        11.3498906667        7.5344407428       -0.0044620408
Ti         9.4610997481        3.7747865563        7.2117414728
Ti         7.5661533466       13.2393560936        2.4090559852
Ti         7.5687336402        3.7749502023       -0.0035676547
Ti         9.4580482637       13.2404909195        4.8051132962
Ti         7.5628185683        7.5678966902        0.0021476362
Ti         9.4553092947        9.4612565685        4.8090847231
Ti         7.5629373377        9.4616204991        2.4062234419
Ti         9.4591112824        7.5659235169        7.2043307573
O        -0.0007151998       -0.0042112845        1.9776376354
O         1.8822710076        1.8872016409        6.7944088359
O         0.0011052962        1.8820991308        4.3916136166
O         1.8852172756       -0.0108568132        9.2004806943
O         1.8817221614        0.0010994949        5.2244856072
O        -0.0011859439        1.8939786861        0.4205403847
O         1.8864258792        1.8819847987        2.8196270761
O         0.0006520175       -0.0078455758        7.6276690158
O        -0.0008892651        3.7750137539        1.9815986490
O         1.8764414669       13.2357397774        6.7972048230
O        11.3517574222        1.8826685902        4.3913302485
O         5.6726384639       -0.0012998709        9.1982488110
O         1.8830218447        3.7757547435        5.2281795961
O        -0.0329816059       13.2323795142        0.4040301465
O         5.6721253548        1.8837248877        2.8194043518
O        11.3528160670       -0.0062601738        7.6273098858
O         3.7744562138       -0.0015439653        7.6331692068
O        13.2367493226        1.8808369963        2.8188634922
O        13.2369265705       -0.0163476402        9.2004807908
O         3.7752408006        1.8835456560        4.3874429934
O         1.8821680541        5.6723051735        6.7954217512
O        -0.0118419355       11.3534014233        1.9867804843
O        -0.0028272322        5.6706846686        0.4182768843
O         1.8790053028       11.3511814626        5.2212668126
O        -0.0031595099        7.5704725837        1.9837923748
O         1.8764230528        9.4636547730        6.7941819494
O         7.5673798738        1.8837414816        4.3917997372
O         9.4635212996       -0.0051240741        9.1955963761
O         1.8816132790        7.5675342342        5.2233678054
O        -0.0314209934        9.4612617289        0.4137559153
O         9.4637335218        1.8831413473        2.8227380092
O         7.5673690848       -0.0017799788        7.6278619833
O         3.7667121822        0.0012102694        1.9870955438
O        13.2378308503        1.8899155841        6.7924407644
O         0.0011838704        5.6588425064        4.3910866292
O         1.9133988490       11.3557931269        9.1895022736
O        13.2378868772        0.0036697710        5.2267540535
O         3.7670099713        1.8868119368        0.4159843832
O         1.8866768153        5.6583959315        2.8197997709
O        -0.0159014828       11.3555737648        7.6516727274
O        11.3561563137        1.8884343459        0.4211292079
O         5.6559067916        0.0008970259        5.2241031481
O         5.6559597568        1.8868565261        6.7949258104
O        11.3563717315       -0.0020219095        1.9821593958
O         1.8866391131        3.7695245738        9.1991844313
O         0.0012002385       13.2336311392        4.3972407163
O         0.0013543391        3.7698347284        7.6264423529
O         1.8874241659       13.2345145406        2.8185358607
O         3.7685967526        3.7755301530        1.9839709892
O        13.2378390365       13.2380215120        6.8028820943
O        11.3517581183        5.6598927928        4.3926854153
O         5.6719988797       11.3532906283        9.1917418478
O        13.2373995032        3.7756361454        5.2301706013
O         3.7642714162       13.2363584638        0.4153281147
O         5.6719444222        5.6577416897        2.8191022004
O        11.3682357127       11.3483455932        7.6489831956
O        11.3815414517       13.2446676469        0.4140373438
O         5.6564006276        3.7756338662        5.2270452019
O         3.7712974369       11.3536434242        7.6348470709
O        13.2365657291        5.6617758613        2.8183814211
O         5.6559666658       13.2361236029        6.7958114444
O        11.3548930663        3.7773139011        1.9812896806
O        13.2359855032       11.3453330026        9.2283048941
O         3.7751755138        5.6576560333        4.3877072247
O         5.6568085769        5.6726036921        6.7964491182
O        11.3654284385       11.3448939198        1.9820932320
O        13.2367631966        3.7705638110        9.1997320051
O         3.7761251552       13.2359574329        4.3858316258
O        11.3554308970        5.6594573959        0.4209541225
O         5.6563874477       11.3511766237        5.2235220768
O         3.7753204937        3.7697727645        7.6308697477
O        13.2358793493       13.2296020529        2.8140548538
O        13.2371412464       11.3512228078        5.1966506944
O         3.7681172179        5.6724876181        0.4151023564
O         5.6725038259       13.2359379541        2.8210077173
O        11.3515959397        3.7707264441        7.6254022482
O         3.7657378317       11.3513450459        1.9909416946
O        13.2367309758        5.6693664016        6.7943306987
O        11.3513507613       13.2327305591        4.3934404445
O         5.6720176326        3.7701040024        9.1999865652
O         3.7676584164        7.5673454469        1.9889973232
O        13.2361198556        9.4614935149        6.8012160606
O         7.5673012125        5.6580676693        4.3920943333
O         9.4380938691       11.3462164788        9.1880624003
O        13.2365530892        7.5651669871        5.2238898291
O         3.7657354441        9.4631985458        0.4178895705
O         9.4639409227        5.6605449926        2.8217701928
O         7.5712161842       11.3529376101        7.6307980853
O        11.3860082998        9.4678575085        0.4004200697
O         5.6568546431        7.5677298838        5.2220766832
O         5.6570491511        9.4635094973        6.7935490553
O        11.3545107384        7.5768932927        1.9743665937
O         9.4636172745        3.7711810847        9.1964984565
O         7.5670210967       13.2356273912        4.3902846942
O         7.5671894453        3.7703991133        7.6266514520
O         9.4624543648       13.2326318581        2.8224862401
O         7.5848474883        0.0012388973        1.9867591318
O         9.4713147608        1.8871030085        6.7942828919
O         0.0020535722        9.4727491505        4.3932380585
O         1.8870078587        7.5888120026        9.1984458575
O         9.4717845721        0.0011385568        5.2249524067
O         7.5843418949        1.8868815734        0.4167840167
O         1.8886641426        9.4724808655        2.8194791577
O        -0.0005693277        7.5895679723        7.6291574628
O         7.5839000180        3.7758483970        1.9836144652
O         9.4769673606       13.2362451763        6.7970234079
O        11.3516725957        9.4721378943        4.4040748698
O         5.6707298539        7.5845424617        9.1980678877
O         9.4706630374        3.7753984154        5.2277924625
O         7.5870725070       13.2363905801        0.4157961838
O         5.6710231839        9.4700893129        2.8209447178
O        11.3523497143        7.5929833595        7.6269294795
O         3.7749831492        7.5848340937        7.6321664166
O        13.2379190743        9.4750012887        2.8116581627
O        13.2362436973        7.6060414917        9.2024085700
O         3.7754748576        9.4702917988        4.3861112302
O         9.4717745761        5.6721661655        6.7963715148
O         7.5874661715       11.3508154690        1.9904065620
O         7.5865531002        5.6728762171        0.4146297610
O         9.4748777418       11.3512158865        5.2207363738
O         7.5867474206        7.5676193252        1.9887724601
O         9.4780623825        9.4639994763        6.7960949753
O         7.5659505340        9.4700855390        4.3902253794
O         9.4661698530        7.6003149747        9.1999724553
O         9.4725143392        7.5676496888        5.2214737291
O         7.5901300197        9.4632382086        0.4178277962
O         9.4625252906        9.4711557433        2.8192798208
O         7.5689247430        7.5846774914        7.6296847008
     192
 i =       10, E =     -5775.4917259405
Ti         0.0011561009        0.0234163479       -0.0087017242
Ti         1.8904139788        1.8902427547        4.8074333322
Ti         0.0034970696        1.8924112647        2.4048432403
Ti         1.8920605789        0.0041625182        7.2115321118
Ti         0.0026868420        3.7764087829        0.0020458685
Ti         1.8957635526       13.2416457728        4.8059065577
Ti        11.3492708066        1.8911887452        2.4087784375
Ti         5.6690657457        0.0037815565        7.2166798805
Ti         1.8900100282        3.7757235151        7.2096306403
Ti         0.0027147850       13.2469928294        2.4195007903
Ti         5.6688882328        1.8889429106        4.8028705700
Ti        11.3489675628        0.0153876076       -0.0045943523
Ti         3.7788975159        0.0031995923       -0.0017287203
Ti        13.2373952477        1.8948315618        4.8060921376
Ti        13.2363527484        0.0156048493        7.2088106267
Ti         3.7772457000        1.8895327473        2.4053668356
Ti         1.8904960077        5.6666428669        4.8119389200
Ti         0.1444441200       11.3455398345        0.0438485975
Ti         0.0030621372        5.6665767208        2.4006244720
Ti         1.8932504545       11.3519625386        7.1976424890
Ti         0.0036556416        7.5553363325        0.0026630333
Ti         1.8961116287        9.4585682041        4.8091078612
Ti         7.5683845552        1.8894205381        2.4086911248
Ti         9.4586331495        0.0047469815        7.2127964770
Ti         1.8921296907        7.5665234096        7.2056117562
Ti         0.0041460772        9.4516265857        2.4142073643
Ti         9.4600625509        1.8899831046        4.8059607447
Ti         7.5681349072        0.0036742652       -0.0057511198
Ti         3.7769891719        3.7760849092       -0.0001235183
Ti        13.2361661669       13.2577689178        4.7990552296
Ti        11.3488736519        5.6648727931        2.4021951460
Ti         5.6694921129       11.3511032082        7.2043994282
Ti        13.2374263116        3.7754472844        7.2097078640
Ti         3.7787238506       13.2402449189        2.4077655015
Ti         5.6687675846        5.6677470225        4.8075507338
Ti        11.2104737846       11.3699320639        0.0353794618
Ti        11.3483132373       13.2511773952        2.4172188754
Ti         5.6687746659        3.7761301077        7.2142903491
Ti         3.8116537300       11.3511299551        0.0057109699
Ti        13.2375843340        5.6606848227        4.8111463309
Ti         5.6691827437       13.2392101118        4.8024554980
Ti        11.3495183379        3.7700154377        0.0004804967
Ti        13.2369987621       11.3500996342        7.1108540504
Ti         3.7775244423        5.6671522094        2.4008235634
Ti         3.7778392415        7.5676692913        0.0035504885
Ti        13.2401819636        9.4425648290        4.8040074150
Ti         7.5689432186        5.6671267886        2.4041110561
Ti         9.4564671060       11.3502686762        7.1980249042
Ti        13.2395126473        7.5554932857        7.2005184580
Ti         3.7789583431        9.4598109035        2.4044741195
Ti         9.4598351285        5.6662819435        4.8111711483
Ti         7.5349233636       11.3509111767        0.0023266445
Ti        11.3495233116        9.4568138751        2.4271329605
Ti         5.6686872088        7.5677430591        7.2105581568
Ti         5.6678831345        9.4611399429        4.8057945752
Ti        11.3519465939        7.5295636243       -0.0091451321
Ti         9.4603426466        3.7765575679        7.2104764988
Ti         7.5672349244       13.2403991406        2.4109210008
Ti         7.5690558063        3.7762733276       -0.0034431040
Ti         9.4552591992       13.2420520455        4.8045845316
Ti         7.5661464314        7.5691031172        0.0015274604
Ti         9.4526027396        9.4592103240        4.8094328974
Ti         7.5669200847        9.4603204402        2.4082334408
Ti         9.4580519581        7.5683293678        7.2054857738
O         0.0053413489       -0.0044710451        1.9732361939
O         1.8836289312        1.8845446430        6.7962578841
O         0.0006141885        1.8843118937        4.3896433460
O         1.8797088926       -0.0036173715        9.2023419083
O         1.8858630495       -0.0004096115        5.2258062931
O        -0.0018374778        1.8850840920        0.4152119692
O         1.8848585789        1.8838795433        2.8202119392
O        -0.0013415389        0.0064386120        7.6278554688
O         0.0011691318        3.7773377280        1.9845419669
O         1.8797174816       13.2321117200        6.7953159993
O        11.3526085629        1.8842369093        4.3917575494
O         5.6721044060       -0.0009838222        9.2005123694
O         1.8845249018        3.7757662068        5.2272793111
O        -0.0695264474       13.2167059028        0.3936453444
O         5.6719579436        1.8839632987        2.8188879602
O        11.3540153510        0.0041895396        7.6297526434
O         3.7733681541        0.0006703991        7.6328010181
O        13.2375546645        1.8829660486        2.8196495395
O        13.2369139367        0.0028194942        9.1967403178
O         3.7745393895        1.8845814790        4.3872821601
O         1.8835675072        5.6744640927        6.7970383944
O         0.0113389495       11.3508785111        1.9926936762
O        -0.0006946844        5.6744979354        0.4139844708
O         1.8831307302       11.3512855135        5.2228074769
O         0.0086278805        7.5733990199        1.9807745034
O         1.8779452923        9.4686745047        6.7941577615
O         7.5679145622        1.8840539100        4.3918505357
O         9.4693477443       -0.0023527206        9.1968077677
O         1.8853110210        7.5694593021        5.2242551381
O        -0.0560886141        9.4799830399        0.4036123370
O         9.4651625458        1.8835724619        2.8232648561
O         7.5689033129        0.0002459172        7.6270333527
O         3.7710842805        0.0001311041        1.9869125040
O        13.2376099856        1.8865778587        6.7959977363
O         0.0002292880        5.6577353056        4.3907172312
O         1.9329774255       11.3491457067        9.1864436297
O        13.2370734189        0.0036255040        5.2276779873
O         3.7685598963        1.8853326828        0.4148784518
O         1.8849022867        5.6584732832        2.8192706110
O        -0.0320893681       11.3520274402        7.6904545282
O        11.3554733778        1.8840560319        0.4170188951
O         5.6559208361        0.0001359052        5.2244358343
O         5.6558798646        1.8864595737        6.7954012863
O        11.3481324040       -0.0007128487        1.9813633932
O         1.8848415214        3.7706401317        9.1988245562
O        -0.0006331757       13.2395925374        4.3908767554
O         0.0004964378        3.7698566928        7.6292159303
O         1.8797424577       13.2353482964        2.8166563183
O         3.7692359107        3.7756926795        1.9842979962
O        13.2359849706       13.2280786050        6.8038209024
O        11.3523697881        5.6586653169        4.3895885358
O         5.6726787878       11.3539122842        9.1875369209
O        13.2380146903        3.7757928025        5.2285492449
O         3.7744715896       13.2340558844        0.4176784907
O         5.6727642740        5.6575204612        2.8180641818
O        11.3835303057       11.3606245833        7.6854468335
O        11.3981418732       13.2229055575        0.4031313491
O         5.6559944199        3.7758694541        5.2267804275
O         3.7728332352       11.3532209491        7.6298927475
O        13.2352838291        5.6627629656        2.8193924079
O         5.6556668025       13.2357386031        6.7955231979
O        11.3535072825        3.7754022397        1.9854503853
O        13.2330507861       11.3458662764        9.2783004581
O         3.7747355443        5.6573088370        4.3881484295
O         5.6560335925        5.6738118100        6.7963669783
O        11.3446391381       11.3499556598        1.9869588011
O        13.2363680067        3.7683858140        9.1975590086
O         3.7746975817       13.2371929528        4.3876197827
O        11.3566673764        5.6684106448        0.4135373204
O         5.6556272574       11.3511338084        5.2216428316
O         3.7746340776        3.7698928350        7.6307897640
O        13.2368365723       13.2399149801        2.8176926457
O        13.2390033761       11.3508898016        5.1921457089
O         3.7681982442        5.6741122656        0.4145180685
O         5.6721168472       13.2367709375        2.8177738889
O        11.3523734223        3.7676326563        7.6294174177
O         3.7725682202       11.3512044625        1.9879343223
O        13.2382671451        5.6730420058        6.7979083800
O        11.3529825077       13.2391908569        4.3924110096
O         5.6723607204        3.7695542775        9.2006045586
O         3.7693250086        7.5687889349        1.9875078102
O        13.2420303891        9.4701153707        6.8007895397
O         7.5683168146        5.6567446715        4.3921936977
O         9.4159580644       11.3626544620        9.1821950164
O        13.2396848686        7.5642899542        5.2258630381
O         3.7714811970        9.4657604584        0.4200840867
O         9.4664084544        5.6600951540        2.8231638691
O         7.5711808265       11.3555787742        7.6252552032
O        11.4185053177        9.4842088017        0.3821107237
O         5.6558087117        7.5689769773        5.2233909248
O         5.6558961909        9.4639320001        6.7930152784
O        11.3489356895        7.5802237883        1.9673612041
O         9.4658347562        3.7672778154        9.1950438271
O         7.5681064538       13.2379901180        4.3923996080
O         7.5680474367        3.7688253763        7.6265405255
O         9.4700369403       13.2354867285        2.8198298997
O         7.5835141200        0.0000715597        1.9866513085
O         9.4704003688        1.8857938868        6.7970107464
O         0.0002168392        9.4684316499        4.3934186783
O         1.8801660116        7.5890690648        9.2023046256
O         9.4687160507       -0.0004365808        5.2244014347
O         7.5844430454        1.8862379994        0.4152632366
O         1.8800143203        9.4713960270        2.8150341428
O        -0.0014691758        7.5805065508        7.6294992440
O         7.5830702225        3.7762479234        1.9841767699
O         9.4757894585       13.2306203069        6.7979214539
O        11.3537513854        9.4690604870        4.3907607342
O         5.6728325130        7.5853525841        9.2017834310
O         9.4692562778        3.7761541169        5.2261971939
O         7.5817176195       13.2336472693        0.4171611821
O         5.6727811382        9.4703847390        2.8169483171
O        11.3550519600        7.5738128294        7.6266287446
O         3.7737485129        7.5839756755        7.6306862088
O        13.2347450200        9.4665272147        2.8169590483
O        13.2342441037        7.5789849586        9.1997106811
O         3.7745134401        9.4694795046        4.3882974911
O         9.4703201180        5.6766548818        6.7983855444
O         7.5794143952       11.3510330175        1.9878292956
O         7.5842805374        5.6758558565        0.4137501834
O         9.4702454174       11.3511214568        5.2219042740
O         7.5800812765        7.5691756195        1.9878211578
O         9.4726356379        9.4676913363        6.7932559885
O         7.5673546274        9.4700627666        4.3928003999
O         9.4741340684        7.5866873570        9.2026149440
O         9.4673756585        7.5698692694        5.2244348654
O         7.5756152177        9.4656474801        0.4209803039
O         9.4721976050        9.4721339377        2.8197831738
O         7.5706577293        7.5824447688        7.6282706161
     192
 i =       11, E =     -5775.4942369512
Ti        -0.0000323868        0.0184279044       -0.0089046134
Ti         1.8907120179        1.8904859808        4.8070273125
Ti         0.0040017178        1.8909217783        2.4046952887
Ti         1.8917036417        0.0061172733        7.2123222178
Ti         0.0034818308        3.7781918791       -0.0003077028
Ti         1.8949850466       13.2424727653        4.8051743501
Ti        11.3483777923        1.8907202845        2.4083842104
Ti         5.6692769824        0.0045554464        7.2166415094
Ti         1.8900894460        3.7768740746        7.2112121563
Ti         0.0018094936       13.2471624734        2.4185558916
Ti         5.6689395040        1.8896734100        4.8028204570
Ti        11.3496472842        0.0139686392       -0.0069987224
Ti         3.7795138761        0.0044941954       -0.0012231569
Ti        13.2375516743        1.8951771743        4.8046334899
Ti        13.2364191073        0.0161839147        7.2113921559
Ti         3.7779283112        1.8898121004        2.4051808330
Ti         1.8906065652        5.6670672627        4.8118071163
Ti         0.1439094384       11.3469687612        0.0430889377
Ti         0.0045144958        5.6671708107        2.4002779011
Ti         1.8976572028       11.3512355959        7.1953986355
Ti         0.0029652856        7.5579044731        0.0006340955
Ti         1.8948984572        9.4582737600        4.8088936526
Ti         7.5684050057        1.8898332573        2.4084445094
Ti         9.4591919340        0.0067432855        7.2142203812
Ti         1.8915583848        7.5659369782        7.2064112657
Ti         0.0042362964        9.4534455809        2.4132219391
Ti         9.4597499530        1.8903843788        4.8057822099
Ti         7.5677173268        0.0048053290       -0.0051264424
Ti         3.7776046342        3.7766394368       -0.0005397916
Ti        13.2362767122       13.2587232838        4.7968897496
Ti        11.3486038906        5.6665446829        2.4025933197
Ti         5.6689412332       11.3513857785        7.1974802472
Ti        13.2374277711        3.7760362544        7.2134465193
Ti         3.7805618445       13.2407221683        2.4063750424
Ti         5.6689157245        5.6675195079        4.8076302935
Ti        11.2113793617       11.3588836105        0.0380980361
Ti        11.3482219900       13.2489440826        2.4173747381
Ti         5.6689280946        3.7763126269        7.2146902499
Ti         3.8130421576       11.3510018466        0.0059865386
Ti        13.2376291683        5.6608998303        4.8090462207
Ti         5.6693014834       13.2408683928        4.8025462971
Ti        11.3491291854        3.7721532289       -0.0020649218
Ti        13.2360258928       11.3511359136        7.1289839930
Ti         3.7778669514        5.6674098118        2.4002873070
Ti         3.7787569293        7.5675021915        0.0048401017
Ti        13.2397765928        9.4410173064        4.8013208458
Ti         7.5683092204        5.6677059671        2.4037483151
Ti         9.4509073266       11.3523942973        7.1953571595
Ti        13.2390804729        7.5559368780        7.2035907229
Ti         3.7803061402        9.4595508515        2.4028898478
Ti         9.4598510893        5.6672209662        4.8105189107
Ti         7.5357365851       11.3519731433        0.0025294475
Ti        11.3507914672        9.4555716206        2.4216815577
Ti         5.6689982586        7.5675317076        7.2102227823
Ti         5.6682785424        9.4597618071        4.8059061290
Ti        11.3530865267        7.5425216672       -0.0086526460
Ti         9.4604021618        3.7764202754        7.2123869835
Ti         7.5662157406       13.2408950707        2.4094966298
Ti         7.5686260872        3.7763240817       -0.0039215288
Ti         9.4561319511       13.2426260862        4.8038518667
Ti         7.5660909241        7.5683510261        0.0024272785
Ti         9.4539821958        9.4587658936        4.8077764306
Ti         7.5654338704        9.4601808454        2.4065990505
Ti         9.4588954430        7.5669791804        7.2065930597
O         0.0058457152       -0.0038715013        1.9735986277
O         1.8849143477        1.8869076073        6.7952135233
O         0.0012609502        1.8840196411        4.3897165746
O         1.8823941449       -0.0062789167        9.2023692465
O         1.8853122308        0.0002022859        5.2260746441
O        -0.0010573558        1.8862587697        0.4141831721
O         1.8861846548        1.8842186541        2.8201250568
O         0.0000009472        0.0016430730        7.6254893019
O         0.0010706248        3.7762384109        1.9829463699
O         1.8797889834       13.2331645785        6.7948012142
O        11.3522848675        1.8843356716        4.3916310675
O         5.6723759641        0.0000928366        9.1997664219
O         1.8846512130        3.7759705291        5.2284841806
O        -0.0580409466       13.2160864386        0.4008660625
O         5.6723243050        1.8845902827        2.8193208149
O        11.3530074020        0.0010348505        7.6264444533
O         3.7738578539       -0.0003870729        7.6331211546
O        13.2371104100        1.8830847289        2.8190340868
O        13.2357401919        0.0072350428        9.1968751144
O         3.7749956564        1.8845172695        4.3870081778
O         1.8848623797        5.6743311096        6.7959250409
O         0.0206244568       11.3520427781        1.9951607766