 DBCSR| CPU Multiplication driver                                           XSMM (U)
 DBCSR| Multrec recursion limit                                              512 (U)
 DBCSR| Multiplication stack size                                           1000 (D)
 DBCSR| Maximum elements for images                                    UNLIMITED (U)
 DBCSR| Multiplicative factor virtual images                                   1 (U)
 DBCSR| Use multiplication densification                                       T (D)
 DBCSR| Multiplication size stacks                                             3 (U)
 DBCSR| Use memory pool for CPU allocation                                     F (U)
 DBCSR| Number of 3D layers                                               SINGLE (U)
 DBCSR| Use MPI memory allocation                                              F (U)
 DBCSR| Use RMA algorithm                                                      F (U)
 DBCSR| Use Communication thread                                               T (U)
 DBCSR| Communication thread load                                             87 (D)
 DBCSR| MPI: My process id                                                     0
 DBCSR| MPI: Number of processes                                             128
 DBCSR| OMP: Current number of threads                                         1
 DBCSR| OMP: Max number of threads                                             1
 DBCSR| Split modifier for TAS multiplication algorithm                  1.0E+00 (U)


  **** **** ******  **  PROGRAM STARTED AT               2025-06-19 09:29:12.826
 ***** ** ***  *** **   PROGRAM STARTED ON                             nid001310
 **    ****   ******    PROGRAM STARTED BY                                cahart
 ***** **    ** ** **   PROGRAM PROCESS ID                                226020
  **** **  *******  **  PROGRAM STARTED IN /mnt/lustre/a2fs-work2/work/e05/e05/c
                                           ahart/postdoc2/work/group/tio2/anatas
                                           e/cell-441/geo-opt/mp-390/hole/from-n
                                           eutral/pbe-u-o/u-2.1

 CP2K| version string:                                       CP2K version 2024.3
 CP2K| source code revision number:                                  git:6712648
 CP2K| cp2kflags: omp libint fftw3 libxc libgrpp elpa parallel scalapack cosma x
 CP2K|            smm plumed2 spglib mkl sirius libvori libbqb libvdwxc hdf5
 CP2K| is freely available from                            https://www.cp2k.org/
 CP2K| Program compiled at                       Thu 12 Sep 2024 10:20:47 AM BST
 CP2K| Program compiled on                                                  ln04
 CP2K| Program compiled for                                                local
 CP2K| Data directory path    /mnt/lustre/a2fs-work1/work/y07/shared/apps/core/c
 CP2K| Input file name                                                 input.inp

 GLOBAL| Force Environment number                                              1
 GLOBAL| Basis set file name                                        BASIS_MOLOPT
 GLOBAL| Potential file name                                      GTH_POTENTIALS
 GLOBAL| MM Potential file name                                     MM_POTENTIAL
 GLOBAL| Coordinate file name                                         system.xyz
 GLOBAL| Method name                                                        CP2K
 GLOBAL| Project name                                                       tio2
 GLOBAL| Run type                                                        GEO_OPT
 GLOBAL| FFT library                                                       FFTW3
 GLOBAL| Diagonalization library                                            ELPA
 GLOBAL| DGEMM library                                                      BLAS
 GLOBAL| Minimum number of eigenvectors for ELPA usage                        16
 GLOBAL| Orthonormality check for eigenvectors                          DISABLED
 GLOBAL| Matrix multiplication library                                     COSMA
 GLOBAL| All-to-all communication in single precision                          F
 GLOBAL| FFTs using library dependent lengths                                  F
 GLOBAL| Grid backend                                                       AUTO
 GLOBAL| Global print level                                               MEDIUM
 GLOBAL| MPI I/O enabled                                                       T
 GLOBAL| Total number of message passing processes                           128
 GLOBAL| Number of threads for this process                                    1
 GLOBAL| This output is from process                                           0
 GLOBAL| Stack size for threads created by OpenMP (OMP_STACKSIZE)        default
 GLOBAL| CPU model name                          AMD EPYC 7742 64-Core Processor
 GLOBAL| CPUID                                                              1002

 MEMORY| system memory details [Kb]
 MEMORY|                        rank 0           min           max       average
 MEMORY| MemTotal            263341976     263341976     263341976     263341976
 MEMORY| MemFree             233575932     233575932     233575932     233575932
 MEMORY| Buffers                     0             0             0             0
 MEMORY| Cached                2117908       2117908       2117908       2117908
 MEMORY| Slab                  6108300       6108280       6108300       6108287
 MEMORY| SReclaimable           924412        924412        924412        924412
 MEMORY| MemLikelyFree       236618252     236618252     236618252     236618252


 *** Fundamental physical constants (SI units) ***

 *** Literature: B. J. Mohr and B. N. Taylor,
 ***             CODATA recommended values of the fundamental physical
 ***             constants: 2006, Web Version 5.1
 ***             http://physics.nist.gov/constants

 Speed of light in vacuum [m/s]                             2.99792458000000E+08
 Magnetic constant or permeability of vacuum [N/A**2]       1.25663706143592E-06
 Electric constant or permittivity of vacuum [F/m]          8.85418781762039E-12
 Planck constant (h) [J*s]                                  6.62606896000000E-34
 Planck constant (h-bar) [J*s]                              1.05457162825177E-34
 Elementary charge [C]                                      1.60217648700000E-19
 Electron mass [kg]                                         9.10938215000000E-31
 Electron g factor [ ]                                     -2.00231930436220E+00
 Proton mass [kg]                                           1.67262163700000E-27
 Fine-structure constant                                    7.29735253760000E-03
 Rydberg constant [1/m]                                     1.09737315685270E+07
 Avogadro constant [1/mol]                                  6.02214179000000E+23
 Boltzmann constant [J/K]                                   1.38065040000000E-23
 Atomic mass unit [kg]                                      1.66053878200000E-27
 Bohr radius [m]                                            5.29177208590000E-11

 *** Conversion factors ***

 [u] -> [a.u.]                                              1.82288848426455E+03
 [Angstrom] -> [Bohr] = [a.u.]                              1.88972613288564E+00
 [a.u.] = [Bohr] -> [Angstrom]                              5.29177208590000E-01
 [a.u.] -> [s]                                              2.41888432650478E-17
 [a.u.] -> [fs]                                             2.41888432650478E-02
 [a.u.] -> [J]                                              4.35974393937059E-18
 [a.u.] -> [N]                                              8.23872205491840E-08
 [a.u.] -> [K]                                              3.15774647902944E+05
 [a.u.] -> [kJ/mol]                                         2.62549961709828E+03
 [a.u.] -> [kcal/mol]                                       6.27509468713739E+02
 [a.u.] -> [Pa]                                             2.94210107994716E+13
 [a.u.] -> [bar]                                            2.94210107994716E+08
 [a.u.] -> [atm]                                            2.90362800883016E+08
 [a.u.] -> [eV]                                             2.72113838565563E+01
 [a.u.] -> [Hz]                                             6.57968392072181E+15
 [a.u.] -> [1/cm] (wave numbers)                            2.19474631370540E+05
 [a.u./Bohr**2] -> [1/cm]                                   5.14048714338585E+03
 

 CELL_TOP| Volume [angstrom^3]:                                      2198.132028
 CELL_TOP| Vector a [angstrom    15.120     0.000     0.000   |a| =    15.120000
 CELL_TOP| Vector b [angstrom     0.000    15.120     0.000   |b| =    15.120000
 CELL_TOP| Vector c [angstrom     0.000     0.000     9.615   |c| =     9.615020
 CELL_TOP| Angle (b,c), alpha [degree]:                                90.000000
 CELL_TOP| Angle (a,c), beta  [degree]:                                90.000000
 CELL_TOP| Angle (a,b), gamma [degree]:                                90.000000
 CELL_TOP| Requested initial symmetry:                       MONOCLINIC_GAMMA_AB
 CELL_TOP| Numerically orthorhombic:                                         YES
 CELL_TOP| Periodicity                                                       XYZ

 *** WARNING in atoms_input.F:123 :: Overwriting coordinates. Active    ***
 *** coordinates read from &COORD section. Active coordinates READ from ***
 *** &COORD section                                                     ***


 GENERATE|  Preliminary Number of Bonds generated:                             0
 GENERATE|  Achieved consistency in connectivity generation.

 CELL| Volume [angstrom^3]:                                          2198.132028
 CELL| Vector a [angstrom]:      15.120     0.000     0.000   |a| =    15.120000
 CELL| Vector b [angstrom]:       0.000    15.120     0.000   |b| =    15.120000
 CELL| Vector c [angstrom]:       0.000     0.000     9.615   |c| =     9.615020
 CELL| Angle (b,c), alpha [degree]:                                    90.000000
 CELL| Angle (a,c), beta  [degree]:                                    90.000000
 CELL| Angle (a,b), gamma [degree]:                                    90.000000
 CELL| Requested initial symmetry:                           MONOCLINIC_GAMMA_AB
 CELL| Numerically orthorhombic:                                             YES
 CELL| Periodicity                                                           XYZ

 CELL_REF| Volume [angstrom^3]:                                      2198.132028
 CELL_REF| Vector a [angstrom    15.120     0.000     0.000   |a| =    15.120000
 CELL_REF| Vector b [angstrom     0.000    15.120     0.000   |b| =    15.120000
 CELL_REF| Vector c [angstrom     0.000     0.000     9.615   |c| =     9.615020
 CELL_REF| Angle (b,c), alpha [degree]:                                90.000000
 CELL_REF| Angle (a,c), beta  [degree]:                                90.000000
 CELL_REF| Angle (a,b), gamma [degree]:                                90.000000
 CELL_REF| Requested initial symmetry:                       MONOCLINIC_GAMMA_AB
 CELL_REF| Numerically orthorhombic:                                         YES
 CELL_REF| Periodicity                                                       XYZ

 *******************************************************************************
 *******************************************************************************
 **                                                                           **
 **     #####                         ##              ##                      **
 **    ##   ##            ##          ##              ##                      **
 **   ##     ##                       ##            ######                    **
 **   ##     ##  ##   ##  ##   #####  ##  ##   ####   ##    #####    #####    **
 **   ##     ##  ##   ##  ##  ##      ## ##   ##      ##   ##   ##  ##   ##   **
 **   ##  ## ##  ##   ##  ##  ##      ####     ###    ##   ######   ######    **
 **    ##  ###   ##   ##  ##  ##      ## ##      ##   ##   ##       ##        **
 **     #######   #####   ##   #####  ##  ##  ####    ##    #####   ##        **
 **           ##                                                    ##        **
 **                                                                           **
 **                                                ... make the atoms dance   **
 **                                                                           **
 **            Copyright (C) by CP2K developers group (2000-2024)             **
 **                      J. Chem. Phys. 152, 194103 (2020)                    **
 **                                                                           **
 *******************************************************************************

 DFT| Spin unrestricted (spin-polarized) Kohn-Sham calculation               UKS
 DFT| Multiplicity                                                             2
 DFT| Number of spin states                                                    2
 DFT| Charge                                                                   1
 DFT| Self-interaction correction (SIC)                                       NO
 DFT| Cutoffs: density                                              1.000000E-10
 DFT|          gradient                                             1.000000E-10
 DFT|          tau                                                  1.000000E-10
 DFT|          cutoff_smoothing_range                               0.000000E+00
 DFT| XC density smoothing                                                  NONE
 DFT| XC derivatives                                                          PW

 DFT+U| Method                                                          MULLIKEN
 DFT+U| Check atomic kind information for details

 FUNCTIONAL| PBE:
 FUNCTIONAL| J.P.Perdew, K.Burke, M.Ernzerhof, Phys. Rev. Letter, vol. 77, n 18,
 FUNCTIONAL|  pp. 3865-3868, (1996) {spin polarized}                            


 QS| Method:                                                                 GPW
 QS| Density plane wave grid type                        NON-SPHERICAL FULLSPACE
 QS| Number of grid levels:                                                    4
 QS| Density cutoff [a.u.]:                                                300.0
 QS| Multi grid cutoff [a.u.]: 1) grid level                               300.0
 QS|                           2) grid level                               100.0
 QS|                           3) grid level                                33.3
 QS|                           4) grid level                                11.1
 QS| Grid level progression factor:                                          3.0
 QS| Relative density cutoff [a.u.]:                                        20.0
 QS| Interaction thresholds: eps_pgf_orb:                                1.0E-06
 QS|                         eps_filter_matrix:                          0.0E+00
 QS|                         eps_core_charge:                            1.0E-14
 QS|                         eps_rho_gspace:                             1.0E-12
 QS|                         eps_rho_rspace:                             1.0E-12
 QS|                         eps_gvg_rspace:                             1.0E-06
 QS|                         eps_ppl:                                    1.0E-02
 QS|                         eps_ppnl:                                   1.0E-08


 ATOMIC KIND INFORMATION

  1. Atomic kind: Ti                                    Number of atoms:      64

     Orbital Basis Set                                    DZVP-MOLOPT-SR-GTH-q12

       Number of orbital shell sets:                                           1
       Number of orbital shells:                                               8
       Number of primitive Cartesian functions:                                6
       Number of Cartesian basis functions:                                   31
       Number of spherical basis functions:                                   26
       Norm type:                                                              2

       Normalised Cartesian orbitals:

                        Set   Shell   Orbital            Exponent    Coefficient

                          1       1    2s                7.884570       0.015554
                                                         3.894698       0.963603
                                                         1.513589      -0.631435
                                                         0.596768      -0.343022
                                                         0.222222      -0.006534
                                                         0.077078       0.007652

                          1       2    3s                7.884570      -0.009340
                                                         3.894698       0.212624
                                                         1.513589      -0.258368
                                                         0.596768      -0.226206
                                                         0.222222       0.039438
                                                         0.077078       0.107179

                          1       3    4s                7.884570       0.276563
                                                         3.894698       0.105452
                                                         1.513589       0.085149
                                                         0.596768       0.882541
                                                         0.222222      -0.696223
                                                         0.077078       0.156638

                          1       4    3px               7.884570      -2.034794
                                                         3.894698       0.782008
                                                         1.513589       1.253903
                                                         0.596768       0.347823
                                                         0.222222       0.016778
                                                         0.077078      -0.000433
                          1       4    3py               7.884570      -2.034794
                                                         3.894698       0.782008
                                                         1.513589       1.253903
                                                         0.596768       0.347823
                                                         0.222222       0.016778
                                                         0.077078      -0.000433
                          1       4    3pz               7.884570      -2.034794
                                                         3.894698       0.782008
                                                         1.513589       1.253903
                                                         0.596768       0.347823
                                                         0.222222       0.016778
                                                         0.077078      -0.000433

                          1       5    4px               7.884570       0.376572
                                                         3.894698      -0.182875
                                                         1.513589      -0.474776
                                                         0.596768      -0.081757
                                                         0.222222       0.064432
                                                         0.077078       0.047279
                          1       5    4py               7.884570       0.376572
                                                         3.894698      -0.182875
                                                         1.513589      -0.474776
                                                         0.596768      -0.081757
                                                         0.222222       0.064432
                                                         0.077078       0.047279
                          1       5    4pz               7.884570       0.376572
                                                         3.894698      -0.182875
                                                         1.513589      -0.474776
                                                         0.596768      -0.081757
                                                         0.222222       0.064432
                                                         0.077078       0.047279

                          1       6    4dx2              7.884570       3.047350
                                                         3.894698       3.289529
                                                         1.513589       1.060616
                                                         0.596768       0.249930
                                                         0.222222       0.038806
                                                         0.077078       0.002319
                          1       6    4dxy              7.884570       5.278165
                                                         3.894698       5.697631
                                                         1.513589       1.837041
                                                         0.596768       0.432892
                                                         0.222222       0.067214
                                                         0.077078       0.004017
                          1       6    4dxz              7.884570       5.278165
                                                         3.894698       5.697631
                                                         1.513589       1.837041
                                                         0.596768       0.432892
                                                         0.222222       0.067214
                                                         0.077078       0.004017
                          1       6    4dy2              7.884570       3.047350
                                                         3.894698       3.289529
                                                         1.513589       1.060616
                                                         0.596768       0.249930
                                                         0.222222       0.038806
                                                         0.077078       0.002319
                          1       6    4dyz              7.884570       5.278165
                                                         3.894698       5.697631
                                                         1.513589       1.837041
                                                         0.596768       0.432892
                                                         0.222222       0.067214
                                                         0.077078       0.004017
                          1       6    4dz2              7.884570       3.047350
                                                         3.894698       3.289529
                                                         1.513589       1.060616
                                                         0.596768       0.249930
                                                         0.222222       0.038806
                                                         0.077078       0.002319

                          1       7    5dx2              7.884570      -2.119015
                                                         3.894698      -1.237751
                                                         1.513589      -0.746777
                                                         0.596768      -0.071514
                                                         0.222222       0.004086
                                                         0.077078       0.017595
                          1       7    5dxy              7.884570      -3.670241
                                                         3.894698      -2.143848
                                                         1.513589      -1.293455
                                                         0.596768      -0.123865
                                                         0.222222       0.007077
                                                         0.077078       0.030475
                          1       7    5dxz              7.884570      -3.670241
                                                         3.894698      -2.143848
                                                         1.513589      -1.293455
                                                         0.596768      -0.123865
                                                         0.222222       0.007077
                                                         0.077078       0.030475
                          1       7    5dy2              7.884570      -2.119015
                                                         3.894698      -1.237751
                                                         1.513589      -0.746777
                                                         0.596768      -0.071514
                                                         0.222222       0.004086
                                                         0.077078       0.017595
                          1       7    5dyz              7.884570      -3.670241
                                                         3.894698      -2.143848
                                                         1.513589      -1.293455
                                                         0.596768      -0.123865
                                                         0.222222       0.007077
                                                         0.077078       0.030475
                          1       7    5dz2              7.884570      -2.119015
                                                         3.894698      -1.237751
                                                         1.513589      -0.746777
                                                         0.596768      -0.071514
                                                         0.222222       0.004086
                                                         0.077078       0.017595

                          1       8    5fx3              7.884570      -0.342058
                                                         3.894698       0.375798
                                                         1.513589      -0.706469
                                                         0.596768      -0.229994
                                                         0.222222      -0.012723
                                                         0.077078       0.003932
                          1       8    5fx2y             7.884570      -0.764866
                                                         3.894698       0.840310
                                                         1.513589      -1.579712
                                                         0.596768      -0.514282
                                                         0.222222      -0.028450
                                                         0.077078       0.008792
                          1       8    5fx2z             7.884570      -0.764866
                                                         3.894698       0.840310
                                                         1.513589      -1.579712
                                                         0.596768      -0.514282
                                                         0.222222      -0.028450
                                                         0.077078       0.008792
                          1       8    5fxy2             7.884570      -0.764866
                                                         3.894698       0.840310
                                                         1.513589      -1.579712
                                                         0.596768      -0.514282
                                                         0.222222      -0.028450
                                                         0.077078       0.008792
                          1       8    5fxyz             7.884570      -1.324787
                                                         3.894698       1.455460
                                                         1.513589      -2.736142
                                                         0.596768      -0.890763
                                                         0.222222      -0.049276
                                                         0.077078       0.015229
                          1       8    5fxz2             7.884570      -0.764866
                                                         3.894698       0.840310
                                                         1.513589      -1.579712
                                                         0.596768      -0.514282
                                                         0.222222      -0.028450
                                                         0.077078       0.008792
                          1       8    5fy3              7.884570      -0.342058
                                                         3.894698       0.375798
                                                         1.513589      -0.706469
                                                         0.596768      -0.229994
                                                         0.222222      -0.012723
                                                         0.077078       0.003932
                          1       8    5fy2z             7.884570      -0.764866
                                                         3.894698       0.840310
                                                         1.513589      -1.579712
                                                         0.596768      -0.514282
                                                         0.222222      -0.028450
                                                         0.077078       0.008792
                          1       8    5fyz2             7.884570      -0.764866
                                                         3.894698       0.840310
                                                         1.513589      -1.579712
                                                         0.596768      -0.514282
                                                         0.222222      -0.028450
                                                         0.077078       0.008792
                          1       8    5fz3              7.884570      -0.342058
                                                         3.894698       0.375798
                                                         1.513589      -0.706469
                                                         0.596768      -0.229994
                                                         0.222222      -0.012723
                                                         0.077078       0.003932

       Atomic covalent radius [Angstrom]:                                  1.320

       Atomic van der Waals radius [Angstrom]:                             1.760

     GTH Potential information for                                   GTH-PBE-q12

       Description:                       Goedecker-Teter-Hutter pseudopotential
                                           Goedecker et al., PRB 54, 1703 (1996)
                                          Hartwigsen et al., PRB 58, 3641 (1998)
                                                      Krack, TCA 114, 145 (2005)

       Gaussian exponent of the core charge distribution:               3.462604
       Electronic configuration (s p d ...):                           4   6   2

       Parameters of the local part of the GTH pseudopotential:

                          rloc        C1          C2          C3          C4
                        0.380000    8.711442   -0.700287

       Parameters of the non-local part of the GTH pseudopotential:

                   l      r(l)      h(i,j,l)

                   0    0.337771    2.575264    3.692971
                                    3.692971   -4.767605
                   1    0.242531   -4.630541    8.870875
                                    8.870875  -10.496161
                   2    0.243317   -9.406653

  2. Atomic kind: O                                     Number of atoms:     128

     Orbital Basis Set                                     DZVP-MOLOPT-SR-GTH-q6

       Number of orbital shell sets:                                           1
       Number of orbital shells:                                               5
       Number of primitive Cartesian functions:                                5
       Number of Cartesian basis functions:                                   14
       Number of spherical basis functions:                                   13
       Norm type:                                                              2

       Normalised Cartesian orbitals:

                        Set   Shell   Orbital            Exponent    Coefficient

                          1       1    2s               10.389228       0.396646
                                                         3.849621       0.208811
                                                         1.388401      -0.301641
                                                         0.496955      -0.274061
                                                         0.162492      -0.033677

                          1       2    3s               10.389228       0.303673
                                                         3.849621       0.240943
                                                         1.388401      -0.313066
                                                         0.496955      -0.043055
                                                         0.162492       0.213991

                          1       3    3px              10.389228      -1.530415
                                                         3.849621      -1.371928
                                                         1.388401      -0.761951
                                                         0.496955      -0.253695
                                                         0.162492      -0.035541
                          1       3    3py              10.389228      -1.530415
                                                         3.849621      -1.371928
                                                         1.388401      -0.761951
                                                         0.496955      -0.253695
                                                         0.162492      -0.035541
                          1       3    3pz              10.389228      -1.530415
                                                         3.849621      -1.371928
                                                         1.388401      -0.761951
                                                         0.496955      -0.253695
                                                         0.162492      -0.035541

                          1       4    4px              10.389228      -0.565392
                                                         3.849621      -0.038231
                                                         1.388401      -0.382373
                                                         0.496955       0.179070
                                                         0.162492       0.122714
                          1       4    4py              10.389228      -0.565392
                                                         3.849621      -0.038231
                                                         1.388401      -0.382373
                                                         0.496955       0.179070
                                                         0.162492       0.122714
                          1       4    4pz              10.389228      -0.565392
                                                         3.849621      -0.038231
                                                         1.388401      -0.382373
                                                         0.496955       0.179070
                                                         0.162492       0.122714

                          1       5    4dx2             10.389228       1.867377
                                                         3.849621       0.670994
                                                         1.388401       1.353441
                                                         0.496955       0.273538
                                                         0.162492       0.006620
                          1       5    4dxy             10.389228       3.234392
                                                         3.849621       1.162195
                                                         1.388401       2.344229
                                                         0.496955       0.473781
                                                         0.162492       0.011466
                          1       5    4dxz             10.389228       3.234392
                                                         3.849621       1.162195
                                                         1.388401       2.344229
                                                         0.496955       0.473781
                                                         0.162492       0.011466
                          1       5    4dy2             10.389228       1.867377
                                                         3.849621       0.670994
                                                         1.388401       1.353441
                                                         0.496955       0.273538
                                                         0.162492       0.006620
                          1       5    4dyz             10.389228       3.234392
                                                         3.849621       1.162195
                                                         1.388401       2.344229
                                                         0.496955       0.473781
                                                         0.162492       0.011466
                          1       5    4dz2             10.389228       1.867377
                                                         3.849621       0.670994
                                                         1.388401       1.353441
                                                         0.496955       0.273538
                                                         0.162492       0.006620

       Atomic covalent radius [Angstrom]:                                  0.730

       Atomic van der Waals radius [Angstrom]:                             1.520

     GTH Potential information for                                    GTH-PBE-q6

       Description:                       Goedecker-Teter-Hutter pseudopotential
                                           Goedecker et al., PRB 54, 1703 (1996)
                                          Hartwigsen et al., PRB 58, 3641 (1998)
                                                      Krack, TCA 114, 145 (2005)

       Gaussian exponent of the core charge distribution:               8.360253
       Electronic configuration (s p d ...):                               2   4

       Parameters of the local part of the GTH pseudopotential:

                          rloc        C1          C2          C3          C4
                        0.244554  -16.667215    2.487311

       Parameters of the non-local part of the GTH pseudopotential:

                   l      r(l)      h(i,j,l)

                   0    0.220956   18.337458
                   1    0.211332

     A DFT+U correction is applied to atoms of this atomic kind:
       Angular quantum momentum number L:                                      1
       U(eff) = (U - J) value in [eV]:                                     2.100


 MOLECULE KIND INFORMATION


 All atoms are their own molecule, skipping detailed information


 TOTAL NUMBERS AND MAXIMUM NUMBERS

  Total number of            - Atomic kinds:                                   2
                             - Atoms:                                        192
                             - Shell sets:                                   192
                             - Shells:                                      1152
                             - Primitive Cartesian functions:               1024
                             - Cartesian basis functions:                   3776
                             - Spherical basis functions:                   3328

  Maximum angular momentum of- Orbital basis functions:                        3
                             - Local part of the GTH pseudopotential:          2
                             - Non-local part of the GTH pseudopotential:      3


 MODULE QUICKSTEP: ATOMIC COORDINATES IN ANGSTROM

   Atom Kind Element         X             Y             Z       Z(eff)     Mass
      1    1 Ti   22      0.000799      0.000780      0.000002  12.0000  47.8670
      2    1 Ti   22      1.888422      1.888432      4.807509  12.0000  47.8670
      3    1 Ti   22      0.000792      1.888396      2.402069  12.0000  47.8670
      4    1 Ti   22      1.888410      0.000794      7.212947  12.0000  47.8670
      5    1 Ti   22      0.000810      3.776044      0.003087  12.0000  47.8670
      6    1 Ti   22      1.888431     13.237834      4.805774  12.0000  47.8670
      7    1 Ti   22     11.350271      1.888411      2.403679  12.0000  47.8670
      8    1 Ti   22      5.669468      0.000847      7.216949  12.0000  47.8670
      9    1 Ti   22      1.888453      3.776078      7.209839  12.0000  47.8670
     10    1 Ti   22      0.000804     13.237797      2.403815  12.0000  47.8670
     11    1 Ti   22      5.669501      1.888547      4.803463  12.0000  47.8670
     12    1 Ti   22     11.350257      0.000773     -0.001620  12.0000  47.8670
     13    1 Ti   22      3.776056      0.000808     -0.003077  12.0000  47.8670
     14    1 Ti   22     13.237828      1.888427      4.809244  12.0000  47.8670
     15    1 Ti   22     13.237813      0.000812      7.211227  12.0000  47.8670
     16    1 Ti   22      3.776074      1.888457      2.405181  12.0000  47.8670
     17    1 Ti   22      1.888547      5.669507      4.811549  12.0000  47.8670
     18    1 Ti   22      0.000780     11.350263      0.001608  12.0000  47.8670
     19    1 Ti   22      0.000846      5.669468      2.398062  12.0000  47.8670
     20    1 Ti   22      1.888418     11.350269      7.211337  12.0000  47.8670
     21    1 Ti   22      0.000839      7.569593      0.005637  12.0000  47.8670
     22    1 Ti   22      1.888479      9.462816      4.808831  12.0000  47.8670
     23    1 Ti   22      7.569589      1.888530      2.407743  12.0000  47.8670
     24    1 Ti   22      9.462803      0.000816      7.214256  12.0000  47.8670
     25    1 Ti   22      1.888531      7.569585      7.207277  12.0000  47.8670
     26    1 Ti   22      0.000813      9.462805      2.400768  12.0000  47.8670
     27    1 Ti   22      9.462814      1.888487      4.806187  12.0000  47.8670
     28    1 Ti   22      7.569587      0.000837     -0.005633  12.0000  47.8670
     29    1 Ti   22      3.776108      3.776110      0.000000  12.0000  47.8670
     30    1 Ti   22     13.237825     13.237839      4.807522  12.0000  47.8670
     31    1 Ti   22     11.350155      5.669492      2.399634  12.0000  47.8670
     32    1 Ti   22      5.669497     11.350143      7.215378  12.0000  47.8670
     33    1 Ti   22     13.237793      3.776073      7.208142  12.0000  47.8670
     34    1 Ti   22      3.776072     13.237786      2.406885  12.0000  47.8670
     35    1 Ti   22      5.669544      5.669547      4.807507  12.0000  47.8670
     36    1 Ti   22     11.350259     11.350261     -0.000000  12.0000  47.8670
     37    1 Ti   22     11.350277     13.237819      2.405421  12.0000  47.8670
     38    1 Ti   22      5.669517      3.776202      7.213927  12.0000  47.8670
     39    1 Ti   22      3.776062     11.350219     -0.001495  12.0000  47.8670
     40    1 Ti   22     13.237775      5.669485      4.813244  12.0000  47.8670
     41    1 Ti   22      5.669492     13.237777      4.801779  12.0000  47.8670
     42    1 Ti   22     11.350214      3.776052      0.001490  12.0000  47.8670
     43    1 Ti   22     13.237821     11.350270      7.209605  12.0000  47.8670
     44    1 Ti   22      3.776204      5.669520      2.401091  12.0000  47.8670
     45    1 Ti   22      3.776190      7.569544      0.002609  12.0000  47.8670
     46    1 Ti   22     13.237820      9.462830      4.810540  12.0000  47.8670
     47    1 Ti   22      7.569540      5.669530      2.403691  12.0000  47.8670
     48    1 Ti   22      9.462804     11.350222      7.212657  12.0000  47.8670
     49    1 Ti   22     13.237773      7.569606      7.205589  12.0000  47.8670
     50    1 Ti   22      3.776117      9.462748      2.403852  12.0000  47.8670
     51    1 Ti   22      9.462674      5.669544      4.810270  12.0000  47.8670
     52    1 Ti   22      7.569577     11.350155     -0.004060  12.0000  47.8670
     53    1 Ti   22     11.350226      9.462800      2.402351  12.0000  47.8670
     54    1 Ti   22      5.669531      7.569532      7.211318  12.0000  47.8670
     55    1 Ti   22      5.669545      9.462679      4.804738  12.0000  47.8670
     56    1 Ti   22     11.350153      7.569573      0.004054  12.0000  47.8670
     57    1 Ti   22      9.462747      3.776120      7.211164  12.0000  47.8670
     58    1 Ti   22      7.569610     13.237768      2.409433  12.0000  47.8670
     59    1 Ti   22      7.569537      3.776185     -0.002612  12.0000  47.8670
     60    1 Ti   22      9.462826     13.237831      4.804483  12.0000  47.8670
     61    1 Ti   22      7.569534      7.569533     -0.000000  12.0000  47.8670
     62    1 Ti   22      9.462785      9.462782      4.807507  12.0000  47.8670
     63    1 Ti   22      7.569555      9.462671      2.406456  12.0000  47.8670
     64    1 Ti   22      9.462671      7.569551      7.208560  12.0000  47.8670
     65    2 O     8      0.000886      0.001591      1.993061   6.0000  15.9994
     66    2 O     8      1.884816      1.887561      6.800920   6.0000  15.9994
     67    2 O     8      0.001584      1.884779      4.397244   6.0000  15.9994
     68    2 O     8      1.887578      0.000881      9.204249   6.0000  15.9994
     69    2 O     8      1.884780      0.001584      5.217777   6.0000  15.9994
     70    2 O     8      0.000881      1.887577      0.410772   6.0000  15.9994
     71    2 O     8      1.887561      1.884818      2.814097   6.0000  15.9994
     72    2 O     8      0.001595      0.000885      7.621957   6.0000  15.9994
     73    2 O     8      0.000920      3.776003      1.991165   6.0000  15.9994
     74    2 O     8      1.884780     13.236993      6.800996   6.0000  15.9994
     75    2 O     8     11.351125      1.884811      4.397223   6.0000  15.9994
     76    2 O     8      5.672144      0.000868      9.205560   6.0000  15.9994
     77    2 O     8      1.884951      3.775976      5.219645   6.0000  15.9994
     78    2 O     8      0.000884     13.236982      0.410695   6.0000  15.9994
     79    2 O     8      5.672124      1.884946      2.812841   6.0000  15.9994
     80    2 O     8     11.351108      0.000880      7.621978   6.0000  15.9994
     81    2 O     8      3.776006      0.000921      7.623852   6.0000  15.9994
     82    2 O     8     13.236993      1.884780      2.814022   6.0000  15.9994
     83    2 O     8     13.236984      0.000885      9.204323   6.0000  15.9994
     84    2 O     8      3.775980      1.884951      4.395369   6.0000  15.9994
     85    2 O     8      1.884944      5.672110      6.802179   6.0000  15.9994
     86    2 O     8      0.000878     11.351109      1.993042   6.0000  15.9994
     87    2 O     8      0.000866      5.672149      0.409463   6.0000  15.9994
     88    2 O     8      1.884812     11.351123      5.217797   6.0000  15.9994
     89    2 O     8      0.000866      7.566960      1.994294   6.0000  15.9994
     90    2 O     8      1.884946      9.462853      6.799184   6.0000  15.9994
     91    2 O     8      7.566992      1.884943      4.398425   6.0000  15.9994
     92    2 O     8      9.462830      0.000919      9.202485   6.0000  15.9994
     93    2 O     8      1.884942      7.566990      5.216598   6.0000  15.9994
     94    2 O     8      0.000921      9.462828      0.412537   6.0000  15.9994
     95    2 O     8      9.462853      1.884950      2.815837   6.0000  15.9994
     96    2 O     8      7.566960      0.000868      7.620730   6.0000  15.9994
     97    2 O     8      3.769760      0.001587      1.993458   6.0000  15.9994
     98    2 O     8     13.237599      1.887578      6.800487   6.0000  15.9994
     99    2 O     8      0.001619      5.656044      4.396767   6.0000  15.9994
    100    2 O     8      1.887560     11.353745      9.204679   6.0000  15.9994
    101    2 O     8     13.237597      0.001596      5.218206   6.0000  15.9994
    102    2 O     8      3.769864      1.887608      0.410403   6.0000  15.9994
    103    2 O     8      1.887762      5.656323      2.814586   6.0000  15.9994
    104    2 O     8      0.001583     11.353779      7.621529   6.0000  15.9994
    105    2 O     8     11.353744      1.887560      0.410339   6.0000  15.9994
    106    2 O     8      5.656038      0.001619      5.218250   6.0000  15.9994
    107    2 O     8      5.656330      1.887760      6.800431   6.0000  15.9994
    108    2 O     8     11.353778      0.001583      1.993490   6.0000  15.9994
    109    2 O     8      1.887608      3.769865      9.204618   6.0000  15.9994
    110    2 O     8      0.001596     13.237595      4.396812   6.0000  15.9994
    111    2 O     8      0.001589      3.769760      7.621561   6.0000  15.9994
    112    2 O     8      1.887578     13.237598      2.814531   6.0000  15.9994
    113    2 O     8      3.770072      3.776020      1.991631   6.0000  15.9994
    114    2 O     8     13.237595     13.236987      6.800562   6.0000  15.9994
    115    2 O     8     11.350925      5.656281      4.396732   6.0000  15.9994
    116    2 O     8      5.672114     11.353620      9.205935   6.0000  15.9994
    117    2 O     8     13.237561      3.776006      5.220107   6.0000  15.9994
    118    2 O     8      3.769759     13.236986      0.410298   6.0000  15.9994
    119    2 O     8      5.672168      5.656893      2.813023   6.0000  15.9994
    120    2 O     8     11.351124     11.353748      7.621548   6.0000  15.9994
    121    2 O     8     11.353781     13.236991      0.410266   6.0000  15.9994
    122    2 O     8      5.656595      3.776176      5.219918   6.0000  15.9994
    123    2 O     8      3.775980     11.353613      7.623394   6.0000  15.9994
    124    2 O     8     13.236961      5.656073      2.814499   6.0000  15.9994
    125    2 O     8      5.656080     13.236962      6.800515   6.0000  15.9994
    126    2 O     8     11.353615      3.775978      1.991624   6.0000  15.9994
    127    2 O     8     13.236992     11.353780      9.204755   6.0000  15.9994
    128    2 O     8      3.776171      5.656603      4.395099   6.0000  15.9994
    129    2 O     8      5.656893      5.672169      6.802001   6.0000  15.9994
    130    2 O     8     11.353748     11.351126      1.993472   6.0000  15.9994
    131    2 O     8     13.236988      3.769758      9.204722   6.0000  15.9994
    132    2 O     8      3.776004     13.237563      4.394910   6.0000  15.9994
    133    2 O     8     11.353621      5.672117      0.409084   6.0000  15.9994
    134    2 O     8      5.656272     11.350925      5.218285   6.0000  15.9994
    135    2 O     8      3.776026      3.770072      7.623395   6.0000  15.9994
    136    2 O     8     13.236984     13.237595      2.814457   6.0000  15.9994
    137    2 O     8     13.237601     11.351108      5.218230   6.0000  15.9994
    138    2 O     8      3.770118      5.672090      0.409093   6.0000  15.9994
    139    2 O     8      5.672159     13.237611      2.813218   6.0000  15.9994
    140    2 O     8     11.351076      3.769856      7.621613   6.0000  15.9994
    141    2 O     8      3.769856     11.351080      1.993409   6.0000  15.9994
    142    2 O     8     13.237614      5.672150      6.801803   6.0000  15.9994
    143    2 O     8     11.351112     13.237600      4.396797   6.0000  15.9994
    144    2 O     8      5.672101      3.770116      9.205926   6.0000  15.9994
    145    2 O     8      3.770116      7.567006      1.994656   6.0000  15.9994
    146    2 O     8     13.237560      9.462829      6.798725   6.0000  15.9994
    147    2 O     8      7.566937      5.656852      4.398242   6.0000  15.9994
    148    2 O     8      9.462851     11.353621      9.202942   6.0000  15.9994
    149    2 O     8     13.237616      7.566957      5.216975   6.0000  15.9994
    150    2 O     8      3.770061      9.462809      0.412079   6.0000  15.9994
    151    2 O     8      9.462652      5.656611      2.816121   6.0000  15.9994
    152    2 O     8      7.566989     11.353621      7.620351   6.0000  15.9994
    153    2 O     8     11.353620      9.462856      0.412079   6.0000  15.9994
    154    2 O     8      5.656853      7.566922      5.216776   6.0000  15.9994
    155    2 O     8      5.656615      9.462649      6.798894   6.0000  15.9994
    156    2 O     8     11.353622      7.566994      1.994668   6.0000  15.9994
    157    2 O     8      9.462806      3.770063      9.202941   6.0000  15.9994
    158    2 O     8      7.566955     13.237616      4.398050   6.0000  15.9994
    159    2 O     8      7.567006      3.770119      7.620361   6.0000  15.9994
    160    2 O     8      9.462832     13.237561      2.816303   6.0000  15.9994
    161    2 O     8      7.582765      0.001614      1.993052   6.0000  15.9994
    162    2 O     8      9.468706      1.887606      6.800845   6.0000  15.9994
    163    2 O     8      0.001588      9.468804      4.397194   6.0000  15.9994
    164    2 O     8      1.887746      7.582526      9.204226   6.0000  15.9994
    165    2 O     8      9.468807      0.001589      5.217826   6.0000  15.9994
    166    2 O     8      7.582526      1.887745      0.410792   6.0000  15.9994
    167    2 O     8      1.887604      9.468705      2.814177   6.0000  15.9994
    168    2 O     8      0.001615      7.582758      7.621967   6.0000  15.9994
    169    2 O     8      7.582225      3.776160      1.991369   6.0000  15.9994
    170    2 O     8      9.468806     13.236990      6.800946   6.0000  15.9994
    171    2 O     8     11.351076      9.468715      4.397146   6.0000  15.9994
    172    2 O     8      5.672152      7.581983      9.205752   6.0000  15.9994
    173    2 O     8      9.468508      3.776016      5.219663   6.0000  15.9994
    174    2 O     8      7.582758     13.236965      0.410704   6.0000  15.9994
    175    2 O     8      5.672089      9.468470      2.812865   6.0000  15.9994
    176    2 O     8     11.350940      7.582538      7.622006   6.0000  15.9994
    177    2 O     8      3.776157      7.582222      7.623647   6.0000  15.9994
    178    2 O     8     13.236987      9.468806      2.814073   6.0000  15.9994
    179    2 O     8     13.236964      7.582765      9.204316   6.0000  15.9994
    180    2 O     8      3.776015      9.468502      4.395356   6.0000  15.9994
    181    2 O     8      9.468470      5.672097      6.802148   6.0000  15.9994
    182    2 O     8      7.582545     11.350943      1.993017   6.0000  15.9994
    183    2 O     8      7.581979      5.672162      0.409266   6.0000  15.9994
    184    2 O     8      9.468715     11.351078      5.217875   6.0000  15.9994
    185    2 O     8      7.581989      7.566945      1.994487   6.0000  15.9994
    186    2 O     8      9.468516      9.462814      6.799165   6.0000  15.9994
    187    2 O     8      7.566990      9.468473      4.398391   6.0000  15.9994
    188    2 O     8      9.462669      7.582246      9.202676   6.0000  15.9994
    189    2 O     8      9.468471      7.567010      5.216626   6.0000  15.9994
    190    2 O     8      7.582237      9.462671      0.412347   6.0000  15.9994
    191    2 O     8      9.462810      9.468517      2.815859   6.0000  15.9994
    192    2 O     8      7.566946      7.581985      7.620536   6.0000  15.9994



 SCF PARAMETERS         Density guess:                                   RESTART
                        --------------------------------------------------------
                        max_scf:                                              40
                        max_scf_history:                                       0
                        max_diis:                                              4
                        --------------------------------------------------------
                        eps_scf:                                        1.00E-06
                        eps_scf_history:                                0.00E+00
                        eps_diis:                                       1.00E-01
                        eps_eigval:                                     1.00E-05
                        --------------------------------------------------------
                        level_shift [a.u.]:                             0.000000
                        --------------------------------------------------------
                        Outer loop SCF in use 
                        No variables optimised in outer loop
                        eps_scf                                         1.00E-06
                        max_scf                                               60
                        No outer loop optimization
                        step_size                                       5.00E-01

 PW_GRID| Information for grid number                                          1
 PW_GRID| Grid distributed over                                   128 processors
 PW_GRID| Real space group dimensions                                   128    1
 PW_GRID| the grid is blocked:                                                NO
 PW_GRID| Cutoff [a.u.]                                                    300.0
 PW_GRID| spherical cutoff:                                                   NO
 PW_GRID|   Bounds   1           -112     112                Points:         225
 PW_GRID|   Bounds   2           -112     112                Points:         225
 PW_GRID|   Bounds   3            -72      71                Points:         144
 PW_GRID| Volume element (a.u.^3)  0.2035E-02     Volume (a.u.^3)     14833.7304
 PW_GRID| Grid span                                                    FULLSPACE
 PW_GRID|   Distribution                         Average         Max         Min
 PW_GRID|   G-Vectors                            56953.1       57150       56925
 PW_GRID|   G-Rays                                 253.1         254         253
 PW_GRID|   Real Space Points                    56953.1       64800       32400

 PW_GRID| Information for grid number                                          2
 PW_GRID| Number of the reference grid                                         1
 PW_GRID| Grid distributed over                                   128 processors
 PW_GRID| Real space group dimensions                                   128    1
 PW_GRID| the grid is blocked:                                                NO
 PW_GRID| Cutoff [a.u.]                                                    100.0
 PW_GRID| spherical cutoff:                                                   NO
 PW_GRID|   Bounds   1            -67      67                Points:         135
 PW_GRID|   Bounds   2            -67      67                Points:         135
 PW_GRID|   Bounds   3            -40      40                Points:          81
 PW_GRID| Volume element (a.u.^3)  0.1005E-01     Volume (a.u.^3)     14833.7304
 PW_GRID| Grid span                                                    FULLSPACE
 PW_GRID|   Distribution                         Average         Max         Min
 PW_GRID|   G-Vectors                            11533.0       12150       10800
 PW_GRID|   G-Rays                                  85.4          90          80
 PW_GRID|   Real Space Points                    11533.0       21870       10935

 PW_GRID| Information for grid number                                          3
 PW_GRID| Number of the reference grid                                         1
 PW_GRID| Grid distributed over                                   128 processors
 PW_GRID| Real space group dimensions                                     8   16
 PW_GRID| the grid is blocked:                                                NO
 PW_GRID| Cutoff [a.u.]                                                     33.3
 PW_GRID| spherical cutoff:                                                   NO
 PW_GRID|   Bounds   1            -37      37                Points:          75
 PW_GRID|   Bounds   2            -37      37                Points:          75
 PW_GRID|   Bounds   3            -24      23                Points:          48
 PW_GRID| Volume element (a.u.^3)  0.5494E-01     Volume (a.u.^3)     14833.7304
 PW_GRID| Grid span                                                    FULLSPACE
 PW_GRID|   Distribution                         Average         Max         Min
 PW_GRID|   G-Vectors                             2109.4        2475        1725
 PW_GRID|   G-Rays                                  28.1          33          23
 PW_GRID|   Real Space Points                     2109.4        2400        1728

 PW_GRID| Information for grid number                                          4
 PW_GRID| Number of the reference grid                                         1
 PW_GRID| Grid distributed over                                   128 processors
 PW_GRID| Real space group dimensions                                     8   16
 PW_GRID| the grid is blocked:                                                NO
 PW_GRID| Cutoff [a.u.]                                                     11.1
 PW_GRID| spherical cutoff:                                                   NO
 PW_GRID|   Bounds   1            -22      22                Points:          45
 PW_GRID|   Bounds   2            -22      22                Points:          45
 PW_GRID|   Bounds   3            -13      13                Points:          27
 PW_GRID| Volume element (a.u.^3)  0.2713         Volume (a.u.^3)     14833.7304
 PW_GRID| Grid span                                                    FULLSPACE
 PW_GRID|   Distribution                         Average         Max         Min
 PW_GRID|   G-Vectors                              427.1         585         270
 PW_GRID|   G-Rays                                   9.5          13           6
 PW_GRID|   Real Space Points                      427.1         486         270

 POISSON| Solver                                                        PERIODIC
 POISSON| Periodicity                                                        XYZ

 RS_GRID| Information for grid number                                          1
 RS_GRID|   Bounds   1           -112     112                Points:         225
 RS_GRID|   Bounds   2           -112     112                Points:         225
 RS_GRID|   Bounds   3            -72      71                Points:         144
 RS_GRID| Real space distribution over                                  8 groups
 RS_GRID| Real space distribution along direction                              1
 RS_GRID| Border size                                                         26
 RS_GRID| Real space distribution over                                 16 groups
 RS_GRID| Real space distribution along direction                              2
 RS_GRID| Border size                                                         26
 RS_GRID|   Distribution                         Average         Max         Min
 RS_GRID|   Planes                                  80.1          81          80
 RS_GRID|   Distribution                         Average         Max         Min
 RS_GRID|   Planes                                  66.1          67          66

 RS_GRID| Information for grid number                                          2
 RS_GRID|   Bounds   1            -67      67                Points:         135
 RS_GRID|   Bounds   2            -67      67                Points:         135
 RS_GRID|   Bounds   3            -40      40                Points:          81
 RS_GRID| Real space distribution over                                  8 groups
 RS_GRID| Real space distribution along direction                              1
 RS_GRID| Border size                                                         24
 RS_GRID| Real space distribution over                                 16 groups
 RS_GRID| Real space distribution along direction                              2
 RS_GRID| Border size                                                         24
 RS_GRID|   Distribution                         Average         Max         Min
 RS_GRID|   Planes                                  64.9          65          64
 RS_GRID|   Distribution                         Average         Max         Min
 RS_GRID|   Planes                                  56.4          57          56

 RS_GRID| Information for grid number                                          3
 RS_GRID|   Bounds   1            -37      37                Points:          75
 RS_GRID|   Bounds   2            -37      37                Points:          75
 RS_GRID|   Bounds   3            -24      23                Points:          48
 RS_GRID| Real space fully replicated
 RS_GRID| Group size                                                           1

 RS_GRID| Information for grid number                                          4
 RS_GRID|   Bounds   1            -22      22                Points:          45
 RS_GRID|   Bounds   2            -22      22                Points:          45
 RS_GRID|   Bounds   3            -13      13                Points:          27
 RS_GRID| Real space fully replicated
 RS_GRID| Group size                                                           1

 BFGS| Use rational function optimization for step estimation:                NO
 BFGS| Use model Hessian for initial guess:                                  YES
 BFGS| Restart Hessian:                                                       NO
 BFGS| Trust radius:                                                       0.472

 *******************************************************************************
 ***                     STARTING GEOMETRY OPTIMIZATION                      ***
 ***                                   BFGS                                  ***
 *******************************************************************************

 Spin 1

 Number of electrons:                                                        768
 Number of occupied orbitals:                                                768
 Number of molecular orbitals:                                               768

 Spin 2

 Number of electrons:                                                        767
 Number of occupied orbitals:                                                767
 Number of molecular orbitals:                                               767

 Number of orbital functions:                                               3328
 Number of independent orbital functions:                                   3328

 Extrapolation method: initial_guess

 *** WARNING in qs_initial_guess.F:306 :: User requested to restart the    ***
 *** wavefunction from the file named: tio2-RESTART.wfn. This file does    ***
 *** not exist. Please check the existence of the file or change properly  ***
 *** the value of the keyword WFN_RESTART_FILE_NAME. Calculation continues ***
 *** using ATOMIC GUESS.                                                   ***


 Atomic guess: The first density matrix is obtained in terms of atomic orbitals
               and electronic configurations assigned to each atomic kind

 Guess for atomic kind: Ti

 Electronic structure
    Total number of core electrons                                         10.00
    Total number of valence electrons                                      12.00
    Total number of electrons                                              22.00
    Multiplicity                                                   not specified
    S   [  2.00  2.00] 2.00  2.00
    P   [  6.00] 6.00
    D      2.00


 *******************************************************************************
                  Iteration          Convergence                     Energy [au]
 *******************************************************************************
                          1         2.59099                     -56.573945749309
                          2        0.737518                     -57.461623245624
                          3        0.123244E-01                 -57.676656834797
                          4        0.338536E-02                 -57.676690535970
                          5        0.252157E-03                 -57.676697146183
                          6        0.162704E-05                 -57.676697160103
                          7        0.846593E-06                 -57.676697160104

 Energy components [Hartree]           Total Energy ::          -57.676697160104
                                        Band Energy ::          -13.440549799540
                                     Kinetic Energy ::           25.008468428381
                                   Potential Energy ::          -82.685165588485
                                      Virial (-V/T) ::            3.306286661467
                                        Core Energy ::          -97.155838374470
                                          XC Energy ::           -6.919409696495
                                     Coulomb Energy ::           46.398550910862
                       Total Pseudopotential Energy ::         -122.259340742080
                       Local Pseudopotential Energy ::         -118.928992669456
                    Nonlocal Pseudopotential Energy ::           -3.330348072625
                                        Confinement ::            0.950339392289

 Orbital energies  State     L     Occupation   Energy[a.u.]          Energy[eV]

                       1     0          2.000      -2.312566          -62.928123
                       2     0          2.000      -0.123060           -3.348633

                       1     1          6.000      -1.385567          -37.703193

                       1     2          2.000      -0.127948           -3.481643


 Total Electron Density at R=0:                                         0.004726

 Guess for atomic kind: O

 Electronic structure
    Total number of core electrons                                          2.00
    Total number of valence electrons                                       6.00
    Total number of electrons                                               8.00
    Multiplicity                                                   not specified
    S   [  2.00] 2.00
    P      4.00


 *******************************************************************************
                  Iteration          Convergence                     Energy [au]
 *******************************************************************************
                          1        0.702811                     -15.577904332270
                          2        0.612408                     -15.588447180504
                          3        0.955344E-02                 -15.655871208406
                          4        0.223754E-02                 -15.655885053552
                          5        0.157183E-02                 -15.655885461027
                          6        0.124953E-02                 -15.655885607150
                          7        0.312011E-06                 -15.655885858066

 Energy components [Hartree]           Total Energy ::          -15.655885858066
                                        Band Energy ::           -2.983128125584
                                     Kinetic Energy ::           11.754765134683
                                   Potential Energy ::          -27.410650992749
                                      Virial (-V/T) ::            2.331875684345
                                        Core Energy ::          -26.153522949072
                                          XC Energy ::           -3.157392363346
                                     Coulomb Energy ::           13.655029454351
                       Total Pseudopotential Energy ::          -37.943026860963
                       Local Pseudopotential Energy ::          -39.220419683052
                    Nonlocal Pseudopotential Energy ::            1.277392822089
                                        Confinement ::            0.347387772086

 Orbital energies  State     L     Occupation   Energy[a.u.]          Energy[eV]

                       1     0          2.000      -0.861522          -23.443215

                       1     1          4.000      -0.315021           -8.572154


 Total Electron Density at R=0:                                         0.000093

 Spin 1
 Re-scaling the density matrix to get the right number of electrons for spin 1
                  # Electrons              Trace(P)               Scaling factor
                          768               768.001                        1.000

 Spin 2
 Re-scaling the density matrix to get the right number of electrons for spin 2
                  # Electrons              Trace(P)               Scaling factor
                          767               768.001                        0.999


 SCF WAVEFUNCTION OPTIMIZATION

  ----------------------------------- OT ---------------------------------------
  Minimizer      : DIIS                : direct inversion
                                         in the iterative subspace
                                         using   7 DIIS vectors
                                         safer DIIS on
  Preconditioner : FULL_SINGLE_INVERSE : inversion of 
                                         H + eS - 2*(Sc)(c^T*H*c+const)(Sc)^T
  Precond_solver : DEFAULT
  stepsize       :    0.08000000                  energy_gap     :    0.08000000
  eps_taylor     :   0.10000E-15                  max_taylor     :             4
  ----------------------------------- OT ---------------------------------------

  Step     Update method      Time    Convergence         Total energy    Change
  ------------------------------------------------------------------------------
     1 OT DIIS     0.80E-01    2.0     0.01007120     -5659.3037271023 -5.66E+03
     2 OT DIIS     0.80E-01    1.5     0.00726695     -5694.4389782687 -3.51E+01
     3 OT DIIS     0.80E-01    1.5     0.00457842     -5727.5509251840 -3.31E+01
     4 OT DIIS     0.80E-01    1.5     0.00365083     -5737.7042368741 -1.02E+01
     5 OT DIIS     0.80E-01    1.5     0.00267119     -5749.2034513200 -1.15E+01
     6 OT DIIS     0.80E-01    1.5     0.00220162     -5756.1337514416 -6.93E+00
     7 OT DIIS     0.80E-01    1.5     0.00184055     -5762.3497642624 -6.22E+00
     8 OT DIIS     0.80E-01    1.5     0.00147464     -5768.3055717623 -5.96E+00
     9 OT DIIS     0.80E-01    1.5     0.00127839     -5771.9212848444 -3.62E+00
    10 OT DIIS     0.80E-01    1.5     0.00099658     -5775.2089279338 -3.29E+00
    11 OT DIIS     0.80E-01    1.5     0.00090957     -5776.0242815011 -8.15E-01
    12 OT DIIS     0.80E-01    1.5     0.00073568     -5777.8495164094 -1.83E+00
    13 OT DIIS     0.80E-01    1.5     0.00060613     -5779.1816834293 -1.33E+00
    14 OT DIIS     0.80E-01    1.5     0.00050206     -5780.1194009363 -9.38E-01
    15 OT DIIS     0.80E-01    1.5     0.00045369     -5780.6036016217 -4.84E-01
    16 OT DIIS     0.80E-01    1.5     0.00038325     -5781.1339811560 -5.30E-01
    17 OT DIIS     0.80E-01    1.5     0.00035728     -5781.3472630553 -2.13E-01
    18 OT DIIS     0.80E-01    1.6     0.00030926     -5781.6830625286 -3.36E-01
    19 OT DIIS     0.80E-01    1.5     0.00027080     -5781.9085881600 -2.26E-01
    20 OT DIIS     0.80E-01    1.5     0.00025695     -5782.0204443077 -1.12E-01
    21 OT DIIS     0.80E-01    1.5     0.00023876     -5782.1958709984 -1.75E-01
    22 OT DIIS     0.80E-01    1.4     0.00022338     -5782.2961415924 -1.00E-01
    23 OT DIIS     0.80E-01    1.5     0.00019829     -5782.4765634035 -1.80E-01
    24 OT DIIS     0.80E-01    1.5     0.00017608     -5782.5925050650 -1.16E-01
    25 OT DIIS     0.80E-01    1.5     0.00017937     -5782.6080873318 -1.56E-02
    26 OT DIIS     0.80E-01    1.5     0.00014552     -5782.7321827531 -1.24E-01
    27 OT DIIS     0.80E-01    1.5     0.00014261     -5782.7696439059 -3.75E-02
    28 OT DIIS     0.80E-01    1.5     0.00013351     -5782.8122597509 -4.26E-02
    29 OT SD       0.80E-01    1.5     0.00013139     -5782.8540108326 -4.18E-02
    30 OT DIIS     0.80E-01    1.6     0.00012632     -5782.8609155093 -6.90E-03
    31 OT DIIS     0.80E-01    1.4     0.00011980     -5782.9095721812 -4.87E-02
    32 OT DIIS     0.80E-01    1.5     0.00010730     -5782.9422243772 -3.27E-02
    33 OT DIIS     0.80E-01    1.4     0.00009608     -5782.9789143236 -3.67E-02
    34 OT DIIS     0.80E-01    1.4     0.00008964     -5783.0088127765 -2.99E-02
    35 OT DIIS     0.80E-01    1.4     0.00008490     -5783.0267475738 -1.79E-02
    36 OT DIIS     0.80E-01    1.4     0.00007923     -5783.0432103750 -1.65E-02
    37 OT DIIS     0.80E-01    1.5     0.00007745     -5783.0595201998 -1.63E-02
    38 OT DIIS     0.80E-01    1.4     0.00007542     -5783.0641525074 -4.63E-03
    39 OT DIIS     0.80E-01    1.5     0.00007296     -5783.0765875252 -1.24E-02
    40 OT DIIS     0.80E-01    1.5     0.00006864     -5783.0963511417 -1.98E-02

  Leaving inner SCF loop after reaching    40 steps.


  Electronic density on regular grids:      -1534.9999999999        0.0000000001
  Core density on regular grids:             1535.9999999995       -0.0000000005
  Total charge density on r-space grids:        0.9999999996
  Total charge density g-space grids:           0.9999999996

  Overlap energy of the core charge distribution:               0.00000000000328
  Self energy of the core charge distribution:             -12156.89556134359555
  Core Hamiltonian energy:                                   3258.55505963048745
  Hartree energy:                                            4031.30006782075816
  Exchange-correlation energy:                               -921.99882870208944

  DFT+U energy:                                                 5.94291145271240

  Total energy:                                             -5783.09635114172397

  outer SCF iter =    1 RMS gradient =   0.69E-04 energy =      -5783.0963511417

  ----------------------------------- OT ---------------------------------------
[...]
 flops    96 x    64 x    64         710648266752       0.0%    100.0%      0.0%     
 flops   416 x    64 x    32        1199025684480       0.0%    100.0%      0.0%     
 flops   416 x    32 x    64        1199025684480       0.0%    100.0%      0.0%     
 flops    96 x    32 x   208        1485777666048       0.0%    100.0%      0.0%     
 flops   416 x    32 x   208        1842977177600       0.0%    100.0%      0.0%     
 flops   416 x    64 x    64        2258165039104       0.0%    100.0%      0.0%     
 flops    13 x    32 x    13        2775242309632       0.0%    100.0%      0.0%     
 flops    96 x    64 x   208        2802661195776       0.0%    100.0%      0.0%     
 flops    26 x    32 x    26        2864766255104       0.0%    100.0%      0.0%     
 flops    26 x    32 x    13        2864766255104       0.0%    100.0%      0.0%     
 flops    13 x    32 x    26        2864766255104       0.0%    100.0%      0.0%     
 flops   416 x    64 x   208        3477556166656       0.0%    100.0%      0.0%     
 flops inhomo. stacks                    10521634     100.0%      0.0%      0.0%
 flops total                        32.427726E+12       0.0%    100.0%      0.0%
 flops max/rank                    336.501794E+09       0.0%    100.0%      0.0%
 matmuls inhomo. stacks                     15217     100.0%      0.0%      0.0%
 matmuls total                          746109041       0.0%    100.0%      0.0%
 number of processed stacks              19766353       0.1%     99.9%      0.0%
 average stack size                                     1.0      37.8       0.0
 marketing flops                    35.392074E+12
 -------------------------------------------------------------------------------
 # multiplications                          13589
 max memory usage/rank             375.742464E+06
 # max total images/rank                        2
 # max 3D layers                                1
 # MPI messages exchanged                50442368
 MPI messages size (bytes):
  total size                         4.869364E+12
  min size                           0.000000E+00
  max size                         692.224000E+03
  average size                      96.533211E+03
 MPI breakdown and total messages size (bytes):
             size <=      128            22534432                   542928
       128 < size <=     8192             2410816              14796543888
      8192 < size <=    32768             7160736             162567130848
     32768 < size <=   131072             8916864             694364723040
    131072 < size <=  4194304             9419520            3997622353920
   4194304 < size <= 16777216                   0                        0
  16777216 < size                               0                        0
 -------------------------------------------------------------------------------

 *** WARNING in dbcsr_mm.F:301 :: Using a non-square number of MPI ranks ***
 *** might lead to poor performance. Used ranks: 128 Suggested: 121 256  ***

 -------------------------------------------------------------------------------
 -                                                                             -
 -                      DBCSR MESSAGE PASSING PERFORMANCE                      -
 -                                                                             -
 -------------------------------------------------------------------------------
 ROUTINE             CALLS      AVE VOLUME [Bytes]
 MP_Bcast               97                     12.
 MP_Allreduce        69866                     15.
 MP_Alltoall         50245                  29367.
 MP_ISend           854490                  47698.
 MP_IRecv           852442                  47364.
 -------------------------------------------------------------------------------

 -------------------------------------------------------------------------------
 -                                                                             -
 -                                DBM STATISTICS                               -
 -                                                                             -
 -------------------------------------------------------------------------------
    M  x    N  x    K                                          COUNT     PERCENT
 -------------------------------------------------------------------------------

 -------------------------------------------------------------------------------
 -                                                                             -
 -                                GRID STATISTICS                              -
 -                                                                             -
 -------------------------------------------------------------------------------
 LP    KERNEL             BACKEND                              COUNT     PERCENT
 5     collocate ortho    CPU                               47956232      25.14%
 5     integrate ortho    CPU                               47132304      24.71%
 6     integrate ortho    CPU                               24834316      13.02%
 6     collocate ortho    CPU                               24535416      12.86%
 4     collocate ortho    CPU                               21919012      11.49%
 4     integrate ortho    CPU                               21345950      11.19%
 0     integrate general  CPU                                1572864       0.82%
 0     collocate general  CPU                                 884736       0.46%
 7     integrate ortho    CPU                                 481060       0.25%
 1     integrate general  CPU                                  73728       0.04%
 2     collocate ortho    CPU                                  10240       0.01%
 3     collocate ortho    CPU                                   6144       0.00%
 -------------------------------------------------------------------------------

 MEMORY| Estimated peak process memory [MiB]                                 359

 -------------------------------------------------------------------------------
 ----                             MULTIGRID INFO                            ----
 -------------------------------------------------------------------------------
 count for grid        1:        1694410          cutoff [a.u.]          300.00
 count for grid        2:        1447749          cutoff [a.u.]          100.00
 count for grid        3:        1525618          cutoff [a.u.]           33.33
 count for grid        4:        1430435          cutoff [a.u.]           11.11
 total gridlevel count  :        6098212

 -------------------------------------------------------------------------------
 -                                                                             -
 -                         MESSAGE PASSING PERFORMANCE                         -
 -                                                                             -
 -------------------------------------------------------------------------------

 ROUTINE             CALLS      AVE VOLUME [Bytes]
 MP_Group                4
 MP_Bcast            12715                  13185.
 MP_Allreduce        34713                    448.
 MP_Sync              1949
 MP_Alltoall          6410                2484390.
 MP_SendRecv         81788                  11544.
 MP_ISendRecv        77216                  11544.
 MP_Wait            115270
 MP_comm_split         693
 MP_ISend            68742                  78564.
 MP_IRecv            68562                  78763.
 MP_Write_All           24                 355816.
 -------------------------------------------------------------------------------


 -------------------------------------------------------------------------------
 -                                                                             -
 -                           R E F E R E N C E S                               -
 -                                                                             -
 -------------------------------------------------------------------------------
 
 CP2K version 2024.3, the CP2K developers group (2024).
 CP2K is freely available from https://www.cp2k.org/ .
 
 T. D. Kuehne, M. Iannuzzi, M. Del Ben, V. V. Rybkin, P. Seewald, F. Stein, T. 
 Laino, R. Z. Khaliullin, O. Schuett, F. Schiffmann, D. Golze, J. Wilhelm, S. 
 Chulkov, M. H. Bani-Hashemian, V. Weber, U. Borstnik, M. Taillefumier, A. S. 
 Jakobovits, A. Lazzaro, H. Pabst, T. Mueller, R. Schade, M. Guidon, S. 
 Andermatt, N. Holmberg, G. K. Schenter, A. Hehn, A. Bussy, F. Belleflamme, G. 
 Tabacchi, A. Gloess, M. Lass, I. Bethune, C. J. Mundy, C. Plessl, M. Watkins, 
 J. VandeVondele, M. Krack, J. Hutter.
 J. Chem. Phys. 152, 194103 (2020).
 CP2K: An electronic structure and molecular dynamics software package - 
 Quickstep: Efficient and accurate electronic structure calculations.
 https://doi.org/10.1063/5.0007045

 O. Schuett, P. Messmer, J. Hutter, J. VandeVondele.
 Electronic Structure Calculations on Graphics Processing Units, 173-190 (2016).
 GPU-Accelerated Sparse Matrix-Matrix Multiplication for Linear Scaling Density 
 Functional Theory.
 https://doi.org/10.1002/9781118670712.ch8

 A. Heinecke, G. Henry, M. Hutchinson, H. Pabst.
 Proceedings of Intl. Supercomputing Conference, 981-991 (2016).
 LIBXSMM: Accelerating Small Matrix Multiplications by Runtime Code Generation.
 https://doi.org/10.1109/SC.2016.83

 J. Hutter, M. Iannuzzi, F. Schiffmann, J. VandeVondele.
 WIREs Comput Mol Sci. 4, 15-25 (2014).
 CP2K: atomistic simulations of condensed matter systems.
 https://doi.org/10.1002/wcms.1159

 U. Borstnik, J. VandeVondele, V. Weber, J. Hutter.
 Parallel Comput. 40, 47-58 (2014).
 Sparse matrix multiplication: The distributed block-compressed sparse row 
 library.
 https://doi.org/10.1016/j.parco.2014.03.012

 A. Marek, V. Blum, R. Johanni, V. Havu, B. Lang, T. Auckenthaler, A. Heinecke, 
 H. Bungartz, H. Lederer.
 J. Phys. Condens. Matter 26, 213201 (2014).
 The ELPA library: scalable parallel eigenvalue solutions for electronic 
 structure theory and computational science.
 https://doi.org/10.1088/0953-8984/26/21/213201

 J. VandeVondele, J. Hutter.
 J. Chem. Phys. 127, 114105 (2007).
 Gaussian basis sets for accurate calculations on molecular systems in gas and 
 condensed phases.
 https://doi.org/10.1063/1.2770708

 T. D. Khne, M. Krack, F. R. Mohamed, M. Parrinello.
 Phys. Rev. Lett. 98, 066401 (2007).
 Efficient and accurate Car-Parrinello-like approach to Born-Oppenheimer 
 molecular dynamics.
 https://doi.org/10.1103/PhysRevLett.98.066401

 J. VandeVondele, M. Krack, F. Mohamed, M. Parrinello, T. Chassaing, J. Hutter.
 Comput. Phys. Commun. 167, 103-128 (2005).
 QUICKSTEP: Fast and accurate density functional calculations using a mixed 
 Gaussian and plane waves approach.
 https://doi.org/10.1016/j.cpc.2004.12.014

 M. Krack.
 Theor. Chem. Acc. 114, 145-152 (2005).
 Pseudopotentials for H to Kr optimized for gradient-corrected 
 exchange-correlation functionals.
 https://doi.org/10.1007/s00214-005-0655-y

 M. Frigo, S. G. Johnson.
 Proc. IEEE 93, 216-231 (2005).
 The design and implementation of FFTW3.
 https://doi.org/10.1109/JPROC.2004.840301

 J. Kolafa.
 J. Comput. Chem. 25, 335-342 (2004).
 Time-reversible always stable predictor-corrector method for molecular dynamics 
 of polarizable molecules.
 https://doi.org/10.1002/jcc.10385

 J. VandeVondele, J. Hutter.
 J. Chem. Phys. 118, 4365-4369 (2003).
 An efficient orbital transformation method for electronic structure 
 calculations.
 https://doi.org/10.1063/1.1543154

 C. Hartwigsen, S. Goedecker, J. Hutter.
 Phys. Rev. B 58, 3641-3662 (1998).
 Relativistic separable dual-space Gaussian pseudopotentials from H to Rn.
 https://doi.org/10.1103/PhysRevB.58.3641

 S. L. Dudarev, G. A. Botton, S. Y. Savrasov, C. J. Humphreys, A. P. Sutton.
 Phys. Rev. B 57, 1505-1509 (1998).
 Electron-energy-loss spectra and the structural stability of nickel oxide: An 
 LSDA+U study.
 https://doi.org/10.1103/PhysRevB.57.1505

 G. Lippert, J. Hutter, M. Parrinello.
 Mol. Phys. 92, 477-487 (1997).
 A hybrid Gaussian and plane wave density functional scheme.
 https://doi.org/10.1080/002689797170220

 S. L. Dudarev, D. N. Manh, A. P. Sutton.
 Philos. Mag. B 75, 613-628 (1997).
 Effect of Mott-Hubbard correlations on the electronic structure and structural 
 stability of uranium dioxide.
 https://doi.org/10.1080/13642819708202343

 S. Goedecker, M. Teter, J. Hutter.
 Phys. Rev. B 54, 1703-1710 (1996).
 Separable dual-space Gaussian pseudopotentials.
 https://doi.org/10.1103/PhysRevB.54.1703

 J. P. Perdew, K. Burke, M. Ernzerhof.
 Phys. Rev. Lett. 77, 3865-3868 (1996).
 Generalized gradient approximation made simple.
 https://doi.org/10.1103/PhysRevLett.77.3865


 -------------------------------------------------------------------------------
 -                                                                             -
 -                                T I M I N G                                  -
 -                                                                             -
 -------------------------------------------------------------------------------
 SUBROUTINE                       CALLS  ASD         SELF TIME        TOTAL TIME
                                MAXIMUM       AVERAGE  MAXIMUM  AVERAGE  MAXIMUM
 CP2K                                 1  1.0    0.071    0.080  265.991  265.996
 cp_geo_opt                           1  2.0    0.003    0.005  265.179  265.182
 geoopt_bfgs                          1  3.0    0.027    0.034  265.175  265.181
 cp_eval_at                           4  4.0    0.005    0.009  264.855  264.859
 qs_energies                          4  5.8    0.006    0.011  257.058  257.064
 qs_forces                            3  5.0    0.014    0.018  241.734  241.738
 scf_env_do_scf                       4  6.8    0.006    0.009  215.804  215.806
 scf_env_do_scf_inner_loop          149  7.9    0.010    0.035  207.530  207.722
 rebuild_ks_matrix                  152  9.9    0.002    0.003  108.577  108.849
 qs_ks_build_kohn_sham_matrix       152 10.9    0.039    0.046  108.575  108.847
 qs_ks_update_qs_env                155  8.9    0.002    0.004  105.430  105.699
 sum_up_and_integrate               152 11.9    0.009    0.014   68.602   68.639
 integrate_v_rspace                 304 12.9    0.012    0.020   68.415   68.513
 qs_rho_update_rho_low              153  9.0    0.002    0.003   62.915   62.931
 calculate_rho_elec                 306 10.0    0.113    0.130   62.913   62.929
 dbcsr_multiply_generic           13589 12.7    0.478    0.504   58.649   60.188
 grid_integrate_task_list           304 13.9   49.698   51.624   49.698   51.624
 grid_collocate_task_list           306 11.0   45.607   47.431   45.607   47.431
 qs_scf_new_mos                     149  8.9    0.001    0.001   44.585   44.968
 qs_scf_loop_do_ot                  149  9.9    0.001    0.004   44.584   44.967
 multiply_cannon                  13589 13.7    2.454    2.627   39.119   44.481
 ot_scf_mini                        149 10.9    0.006    0.008   41.327   41.595
 multiply_cannon_loop             13589 14.7    0.969    1.058   33.124   38.255
 fft_wrap_pw1pw2                   5110 14.2    0.100    0.123   33.552   37.708
 scf_post_calculation_gpw             4  6.8    0.005    0.008   36.007   36.012
 fft_wrap_pw1pw2_300               3232 15.7    1.280    1.426   31.155   35.258
 qs_vxc_create                      152 11.9    0.004    0.006   31.914   32.146
 xc_vxc_pw_create                   152 12.9    0.583    0.755   31.910   32.143
 fft3d_ps                          5110 16.2   10.069   11.164   26.375   31.213
 ot_mini                            673 10.2    0.012    0.014   29.296   29.628
 xc_pw_derive                      1824 14.9    0.016    0.018   21.538   25.270
 mp_waitall_1                   1606772 16.8   17.149   24.654   17.149   24.654
 multiply_cannon_multrec         217424 15.7   14.470   23.476   14.517   23.524
 qs_ot_get_derivative               564 11.9    0.004    0.004   21.063   21.258
 mp_alltoall_z22v                  5110 18.2   13.527   21.111   13.527   21.111
 multiply_cannon_metrocomm3      217424 15.7    0.527    0.588   12.273   20.625
 make_lumo_gpw                        4  7.8    0.002    0.002   20.288   20.290
 ot_eigensolver                       8  8.8    0.010    0.011   20.216   20.217
 xc_rho_set_and_dset_create         152 13.9    0.523    0.831   16.561   17.558
 density_rs2pw                      306 11.0    0.020    0.022   15.695   17.420
 xc_pw_divergence                   304 13.9    0.007    0.009   14.260   17.195
 qs_ot_get_p                        850 10.5    0.007    0.009   15.804   16.475
 potential_pw2rs                    304 13.9    0.023    0.027   15.447   15.554
 make_m2s                         27178 13.7    0.368    0.397   12.319   12.912
 yz_to_x                           1864 17.3    0.790    1.067    7.723   12.787
 write_available_results              4  7.8    0.003    0.005   12.207   12.217
 write_mo_free_results                4  8.8    0.470    0.493   12.056   12.067
 transfer_pw2rs                    1227 14.8    0.017    0.020   11.532   11.590
 transfer_rs2pw                    1296 11.8    0.021    0.029    9.658   11.168
 qs_ot_p2m_diag                     674 11.3    0.084    0.110   10.703   10.774
 make_images                      27178 14.7    0.719    0.775    9.975   10.471
 mp_waitany                       30466 15.3    8.055   10.365    8.055   10.365
 x_to_yz                           1994 17.6    1.311    1.640    7.816    9.928
 qs_ot_get_derivative_diag          409 12.6    0.008    0.009    9.750    9.838
 transfer_pw2rs_300                 315 15.7    3.963    4.172    8.046    8.446
 cp_dbcsr_syevd                     674 12.3    0.212    0.230    8.415    8.424
 init_scf_loop                        6  7.8    0.004    0.005    8.121    8.129
 transfer_rs2pw_300                 330 12.8    2.350    3.138    6.312    8.116
 mp_sum_l                         64786 13.7    4.577    7.813    4.577    7.813
 cp_fm_redistribute_end             693 14.2    3.974    7.768    4.004    7.790
 cp_fm_diag_elpa                    182 14.6    0.001    0.002    7.691    7.725
 apply_preconditioner_dbcsr         592 12.9    0.002    0.002    6.789    7.527
 apply_single                       592 13.9    0.002    0.002    6.787    7.525
 cp_fm_diag_elpa_base               182 15.6    3.647    7.310    3.673    7.375
 multiply_cannon_metrocomm4      203835 15.7    0.507    0.572    2.452    6.811
 mp_irecv_dv                     442851 16.7    2.075    6.338    2.075    6.338
 mp_alltoall_d11v                 11335 15.0    4.737    6.321    4.737    6.321
 hirshfeld_integration                8  9.8    5.717    6.001    6.214    6.218
 ot_diis_step                       149 12.9    0.021    0.025    6.057    6.060
 xc_functional_eval                 152 14.9    0.003    0.004    4.870    5.706
 pbe_lsd_eval                       152 15.9    4.867    5.703    4.867    5.703
 -------------------------------------------------------------------------------

 The number of warnings for this run is : 3
 
 -------------------------------------------------------------------------------
  **** **** ******  **  PROGRAM ENDED AT                 2025-06-19 09:33:39.576
 ***** ** ***  *** **   PROGRAM RAN ON                                 nid001310
 **    ****   ******    PROGRAM RAN BY                                    cahart
 ***** **    ** ** **   PROGRAM PROCESS ID                                226020
  **** **  *******  **  PROGRAM STOPPED IN /mnt/lustre/a2fs-work2/work/e05/e05/c
                                           ahart/postdoc2/work/group/tio2/anatas
                                           e/cell-441/geo-opt/mp-390/hole/from-n
                                           eutral/pbe-u-o/u-2.1
