     192
 i =        6, E =     -5783.4158444135
Ti         0.0006369105        0.0016268256       -0.0004860953
Ti         1.8887860228        1.8883370444        4.8081640451
Ti         0.0011459809        1.8890927666        2.4028970967
Ti         1.8889369603        0.0015227884        7.2118729891
Ti         0.0013235193        3.7761218130        0.0022848848
Ti         1.8888323299       13.2381285885        4.8061741041
Ti        11.3496728758        1.8882207773        2.4044579678
Ti         5.6694680276        0.0008019856        7.2161580345
Ti         1.8885226490        3.7764568134        7.2091332171
Ti         0.0008096225       13.2370629109        2.4046227676
Ti         5.6696879131        1.8891532758        4.8041466432
Ti        11.3500483398        0.0002520344       -0.0021092604
Ti         3.7769367344        0.0007132653       -0.0036582180
Ti        13.2376088653        1.8891134179        4.8097355020
Ti        13.2372928517        0.0006794628        7.2105605468
Ti         3.7762221725        1.8881194433        2.4060339497
Ti         1.8886968319        5.6698893204        4.8122986524
Ti         0.0008772743       11.3490526285        0.0011479047
Ti         0.0009706350        5.6693963775        2.3987109203
Ti         1.8885596676       11.3494989900        7.2106625407
Ti         0.0009901406        7.5696323243        0.0049374987
Ti         1.8889359488        9.4618664573        4.8092610085
Ti         7.5695025115        1.8893963460        2.4083836208
Ti         9.4623409007        0.0012652994        7.2135743723
Ti         1.8888801432        7.5694718644        7.2066726985
Ti         0.0014809146        9.4630448069        2.4012954820
Ti         9.4624894032        1.8885162631        4.8068831351
Ti         7.5694319231        0.0017365886       -0.0064340103
Ti         3.7766138483        3.7773374522       -0.0009297113
Ti        13.2376637954       13.2372846547        4.8080450946
Ti        11.3500149550        5.6702516884        2.4003038602
Ti         5.6698782285       11.3500863886        7.2145042490
Ti        13.2378002797        3.7770236135        7.2073532325
Ti         3.7765437451       13.2377916538        2.4077308545
Ti         5.6699648928        5.6694353322        4.8081007404
Ti        11.3498758537       11.3504108675       -0.0007255613
Ti        11.3503353738       13.2382341303        2.4058826196
Ti         5.6697592046        3.7769175771        7.2133404840
Ti         3.7764265184       11.3502586598       -0.0019752618
Ti        13.2375317250        5.6691534846        4.8139982847
Ti         5.6699044156       13.2371467516        4.8023879615
Ti        11.3495800632        3.7770149403        0.0007695599
Ti        13.2376162128       11.3501486875        7.2091559788
Ti         3.7768733162        5.6705790555        2.4014985590
Ti         3.7768288325        7.5682457929        0.0020817315
Ti        13.2372563138        9.4625878935        4.8112040055
Ti         7.5688483286        5.6695115901        2.4043868663
Ti         9.4620335885       11.3496661594        7.2120887576
Ti        13.2373813044        7.5691344790        7.2050403835
Ti         3.7762654840        9.4620186214        2.4046672935
Ti         9.4622419989        5.6700571423        4.8110085322
Ti         7.5697037529       11.3491924572       -0.0047376924
Ti        11.3497402383        9.4618847906        2.4030544578
Ti         5.6695451093        7.5689782645        7.2107270563
Ti         5.6699795606        9.4625591261        4.8051826844
Ti        11.3500144040        7.5687157161        0.0033806704
Ti         9.4620872995        3.7762747339        7.2104874016
Ti         7.5689318167       13.2369244058        2.4103127804
Ti         7.5693280420        3.7760991479       -0.0033438342
Ti         9.4621921939       13.2379414212        4.8053261334
Ti         7.5690654272        7.5695221243       -0.0006284587
Ti         9.4623126613        9.4617606244        4.8082765675
Ti         7.5691110866        9.4627061997        2.4073028161
Ti         9.4623998683        7.5696401365        7.2077926923
O         0.0013316399        0.0014261564        1.9937996794
O         1.8848135843        1.8878384709        6.8016895581
O         0.0015828658        1.8844516272        4.3977243867
O         1.8875071151        0.0013726152        9.2064426156
O         1.8834070444        0.0015628913        5.2166999505
O        -0.0000286746        1.8877674030        0.4099959636
O         1.8876957728        1.8834720234        2.8128547673
O         0.0017958117       -0.0002115239        7.6217990197
O         0.0012308257        3.7760106162        1.9911123317
O         1.8848042889       13.2368110696        6.8021125465
O        11.3510845745        1.8848461349        4.3974915999
O         5.6723237520        0.0015723042        9.2070227666
O         1.8838285123        3.7759885699        5.2182804595
O         0.0003046270       13.2370825954        0.4089694136
O         5.6721205645        1.8834129265        2.8118077772
O        11.3510131290        0.0003364007        7.6218837243
O         3.7760212881        0.0003052717        7.6241477739
O        13.2368278308        1.8831976531        2.8125312903
O        13.2368897310        0.0017534968        9.2060911622
O         3.7760944482        1.8850648830        4.3954278686
O         1.8849847256        5.6721710332        6.8027206969
O         0.0012018849       11.3511340811        1.9931372942
O         0.0001917637        5.6722969465        0.4084883646
O         1.8835829354       11.3511222710        5.2161905082
O         0.0011900864        7.5668021377        1.9947559994
O         1.8850104276        9.4627813825        6.7994825348
O         7.5668320346        1.8845959876        4.3985186461
O         9.4627034760        0.0015933346        9.2042901536
O         1.8836786772        7.5667790792        5.2158635584
O         0.0001728700        9.4625133075        0.4119697989
O         9.4627801083        1.8836517303        2.8149534625
O         7.5667886541        0.0000126721        7.6208513532
O         3.7697638896        0.0014999765        1.9934766325
O        13.2385521797        1.8875969840        6.8018622759
O         0.0016626436        5.6566442301        4.3972939493
O         1.8876053075       11.3554751131        9.2063623353
O        13.2372057810        0.0017460572        5.2164132502
O         3.7685285221        1.8880566144        0.4090140566
O         1.8878803768        5.6548096003        2.8130470983
O         0.0017974193       11.3541806117        7.6216975435
O        11.3538316606        1.8878293549        0.4091658236
O         5.6553009384        0.0017315537        5.2163546758
O         5.6566599992        1.8877734551        6.8018026505
O        11.3549162004        0.0017638250        1.9935201477
O         1.8878546064        3.7699324326        9.2064091326
O         0.0017426623       13.2384353323        4.3976268648
O         0.0016930556        3.7686928072        7.6215395390
O         1.8875615301       13.2368682892        2.8129558245
O         3.7701493245        3.7757938353        1.9921866999
O        13.2386384933       13.2368712289        6.8014658378
O        11.3507558843        5.6563927332        4.3974066163
O         5.6720423474       11.3550124861        9.2074278796
O        13.2370048916        3.7758467182        5.2190864022
O         3.7682346551       13.2369841519        0.4093707224
O         5.6721422622        5.6557592000        2.8121363909
O        11.3509416183       11.3536909180        7.6215134844
O        11.3536222672       13.2367757060        0.4098796413
O         5.6556430335        3.7760895085        5.2188532408
O         3.7760256537       11.3535534721        7.6238188688
O        13.2369924315        5.6550094505        2.8130321946
O         5.6563388160       13.2369281764        6.8015648852
O        11.3547960709        3.7758081946        1.9919877905
O        13.2367635167       11.3553019496        9.2065801910
O         3.7760678571        5.6567453395        4.3956234702
O         5.6571481386        5.6722427155        6.8025185310
O        11.3549724710       11.3508537709        1.9941697006
O        13.2367325931        3.7698387449        9.2068472786
O         3.7760601053       13.2379739506        4.3956249993
O        11.3536038482        5.6720774144        0.4091189894
O         5.6553041315       11.3507408320        5.2169265484
O         3.7759874364        3.7687994368        7.6233176327
O        13.2370110657       13.2370725723        2.8131944455
O        13.2371646087       11.3509186602        5.2169518857
O         3.7689346279        5.6719042402        0.4089541253
O         5.6721499653       13.2372056556        2.8122385221
O        11.3510746176        3.7684417402        7.6214207627
O         3.7699886338       11.3508237590        1.9938566665
O        13.2383326948        5.6723824355        6.8023568962
O        11.3507978682       13.2381046369        4.3975993421
O         5.6720311766        3.7700842537        9.2074803801
O         3.7700854730        7.5672240219        1.9943678913
O        13.2384858278        9.4627513127        6.7996528460
O         7.5670368993        5.6571788308        4.3983981238
O         9.4628935884       11.3552593352        9.2042719704
O        13.2373269892        7.5668882520        5.2154721370
O         3.7689480468        9.4627445220        0.4106707881
O         9.4625344551        5.6553656290        2.8146986203
O         7.5668130623       11.3539522188        7.6209468398
O        11.3536650394        9.4629459816        0.4112677719
O         5.6560141502        7.5669587459        5.2154040697
O         5.6569014390        9.4625638954        6.7998982978
O        11.3547077495        7.5669183196        1.9943502351
O         9.4626971227        3.7704439628        9.2044112453
O         7.5669745886       13.2383848635        4.3983019273
O         7.5669503944        3.7692975663        7.6205551597
O         9.4627895975       13.2368034868        2.8150207596
O         7.5835973315        0.0014189986        1.9939443673
O         9.4700132739        1.8877015634        6.8018017533
O         0.0014238783        9.4699141795        4.3981256908
O         1.8877582770        7.5835950753        9.2063321763
O         9.4688004257        0.0016099934        5.2165460406
O         7.5819486322        1.8878048929        0.4101602063
O         1.8877781009        9.4685490627        2.8130531508
O         0.0016785032        7.5823165944        7.6217107129
O         7.5829171344        3.7762554826        1.9914442331
O         9.4701568468       13.2368495379        6.8021877966
O        11.3508615375        9.4701496599        4.3976073203
O         5.6721714444        7.5832327727        9.2070728325
O         9.4685115549        3.7761109694        5.2181589236
O         7.5820288070       13.2371372486        0.4092584064
O         5.6718972921        9.4680957866        2.8118386150
O        11.3509036041        7.5824601612        7.6218612973
O         3.7761532187        7.5821951131        7.6237285077
O        13.2370048067        9.4683747362        2.8126203701
O        13.2369403232        7.5838874354        9.2062103573
O         3.7761874815        9.4697563221        4.3959534538
O         9.4696461155        5.6720743334        6.8030769724
O         7.5835296534       11.3508538806        1.9931651358
O         7.5816854689        5.6722296625        0.4083759243
O         9.4689538745       11.3509714124        5.2160741395
O         7.5829172110        7.5668210705        1.9949027470
O         9.4696628932        9.4628831079        6.7998600724
O         7.5669849877        9.4693397751        4.3987930439
O         9.4624814816        7.5831994032        9.2045134440
O         9.4684341026        7.5667331842        5.2157526517
O         7.5816619362        9.4624954058        0.4118945928
O         9.4627457311        9.4684059238        2.8147367785
O         7.5669180611        7.5815399611        7.6206643955
     192
 i =        7, E =     -5783.4159018784
Ti         0.0006528202        0.0019089879       -0.0007897668
Ti         1.8886002278        1.8881429100        4.8083945890
Ti         0.0013306690        1.8892465327        2.4033004789
Ti         1.8887781541        0.0016290960        7.2114442172
Ti         0.0015070399        3.7757812363        0.0021990878
Ti         1.8885662689       13.2382644435        4.8065182740
Ti        11.3497925763        1.8877853220        2.4047888510
Ti         5.6693903367        0.0006463054        7.2161061391
Ti         1.8883451000        3.7761283495        7.2085216632
Ti         0.0008863696       13.2367102890        2.4049687903
Ti         5.6696140240        1.8891401600        4.8040505044
Ti        11.3501938104        0.0000602849       -0.0023028235
Ti         3.7771150410        0.0003753062       -0.0040679989
Ti        13.2374413316        1.8891483950        4.8099196015
Ti        13.2370554754        0.0006447911        7.2102612613
Ti         3.7760378846        1.8878675378        2.4065912116
Ti         1.8884925976        5.6699705129        4.8128136927
Ti         0.0010226258       11.3488924181        0.0008355251
Ti         0.0008855278        5.6692566368        2.3987614197
Ti         1.8882423629       11.3496029819        7.2103529706
Ti         0.0009507026        7.5698248272        0.0049938221
Ti         1.8888338011        9.4616583758        4.8097805300
Ti         7.5694946140        1.8895138025        2.4090204887
Ti         9.4624459086        0.0014149698        7.2135238648
Ti         1.8887916550        7.5695170721        7.2060554485
Ti         0.0016561524        9.4632020255        2.4014297079
Ti         9.4625253483        1.8882032654        4.8068715585
Ti         7.5692953608        0.0020662533       -0.0069260426
Ti         3.7764758724        3.7774357483       -0.0011417669
Ti        13.2376683993       13.2369931904        4.8083201897
Ti        11.3502577557        5.6704587832        2.4001827494
Ti         5.6698270886       11.3503243237        7.2145204462
Ti        13.2377739403        3.7769958742        7.2068325173
Ti         3.7765820485       13.2379285997        2.4081314501
Ti         5.6699272194        5.6693010175        4.8083195458
Ti        11.3498855621       11.3508582291       -0.0009703097
Ti        11.3505448622       13.2383711353        2.4060791803
Ti         5.6697366007        3.7768404862        7.2130582022
Ti         3.7763605217       11.3506243061       -0.0024461710
Ti        13.2374503219        5.6690983982        4.8144552645
Ti         5.6698539296       13.2369923508        4.8023399017
Ti        11.3496695177        3.7771097382        0.0007141307
Ti        13.2375871399       11.3504480030        7.2089321165
Ti         3.7768925578        5.6707524718        2.4016621536
Ti         3.7768332490        7.5680537139        0.0020258409
Ti        13.2372079078        9.4627297283        4.8116533837
Ti         7.5687928244        5.6692625557        2.4046628363
Ti         9.4620849269       11.3496777221        7.2121299011
Ti        13.2373296963        7.5689709713        7.2045820851
Ti         3.7761752843        9.4618362500        2.4049215180
Ti         9.4622232687        5.6701377908        4.8112675180
Ti         7.5696832533       11.3490352176       -0.0052903675
Ti        11.3497234714        9.4617677777        2.4031033259
Ti         5.6693954779        7.5689317772        7.2104817667
Ti         5.6698008040        9.4627463433        4.8053461740
Ti        11.3502223157        7.5683703212        0.0035340856
Ti         9.4620194709        3.7760515464        7.2102480959
Ti         7.5686977254       13.2366839491        2.4108610620
Ti         7.5692664115        3.7758666333       -0.0036682095
Ti         9.4622660272       13.2380128214        4.8053891114
Ti         7.5689764435        7.5696740624       -0.0008482443
Ti         9.4623302058        9.4616961803        4.8084949875
Ti         7.5691030519        9.4628618872        2.4076129853
Ti         9.4625102207        7.5696035759        7.2075325856
O         0.0014826389        0.0012489000        1.9943562716
O         1.8853512343        1.8873982464        6.8014852768
O         0.0013958264        1.8852465626        4.3977335778
O         1.8872251978        0.0019744577        9.2075785539
O         1.8839708248        0.0016227658        5.2168702827
O         0.0000982641        1.8875554736        0.4090574771
O         1.8875680352        1.8835104411        2.8122923608
O         0.0017865789        0.0001623901        7.6218222507
O         0.0015502646        3.7756889580        1.9919215249
O         1.8855092638       13.2368193227        6.8019016705
O        11.3511415165        1.8852707551        4.3974507340
O         5.6721453214        0.0019561731        9.2080065927
O         1.8838614106        3.7758388297        5.2179872586
O        -0.0000345082       13.2373104457        0.4080091420
O         5.6720816848        1.8836524802        2.8110751565
O        11.3513227950        0.0000717235        7.6217791131
O         3.7758339461        0.0002946772        7.6239287273
O        13.2370055643        1.8835613740        2.8121514785
O        13.2368748654        0.0017745877        9.2068840979
O         3.7757474942        1.8853595200        4.3955102101
O         1.8855358613        5.6719725295        6.8027853979
O         0.0014604761       11.3510698669        1.9936563899
O         0.0001963314        5.6724148210        0.4072180398
O         1.8838121483       11.3513386873        5.2160463403
O         0.0016402829        7.5665172598        1.9957127945
O         1.8855081194        9.4630589336        6.7996120883
O         7.5666837701        1.8854019141        4.3989886263
O         9.4627175398        0.0019656461        9.2054453850
O         1.8840063523        7.5667501136        5.2155902273
O         0.0002268312        9.4629579837        0.4110574845
O         9.4630903352        1.8838117077        2.8141882216
O         7.5669260855        0.0001787080        7.6206573497
O         3.7704506586        0.0015020550        1.9939247406
O        13.2385550486        1.8872531092        6.8018623535
O         0.0015949353        5.6570091300        4.3972825783
O         1.8873436282       11.3548425728        9.2071024699
O        13.2367912393        0.0017011091        5.2162403097
O         3.7686285401        1.8877331322        0.4080054748
O         1.8876259625        5.6543044075        2.8123414386
O         0.0018046387       11.3530868766        7.6218140209
O        11.3530868353        1.8877624642        0.4082910249
O         5.6547145930        0.0017722084        5.2163981819
O         5.6571478256        1.8873957502        6.8016628201
O        11.3545985291        0.0015264806        1.9939124054
O         1.8875169025        3.7706813243        9.2069475597
O         0.0015940677       13.2382433335        4.3976062559
O         0.0017542358        3.7690295921        7.6216631011
O         1.8874951364       13.2366694214        2.8125054367
O         3.7708529818        3.7753537116        1.9929983573
O        13.2383319439       13.2369418117        6.8014731349
O        11.3508589469        5.6569604644        4.3975848598
O         5.6717928816       11.3548922008        9.2084945295
O        13.2369132163        3.7757130741        5.2188444552
O         3.7685417898       13.2370444888        0.4085922866
O         5.6721929447        5.6553703548        2.8114194190
O        11.3513084871       11.3531681011        7.6217656661
O        11.3532448040       13.2370165822        0.4093560839
O         5.6554300238        3.7758286740        5.2186157719
O         3.7757673090       11.3529928350        7.6237935025
O        13.2370216376        5.6542868759        2.8124715608
O         5.6567936500       13.2368797786        6.8013164823
O        11.3544532086        3.7753053639        1.9927896462
O        13.2367113449       11.3550499003        9.2072887912
O         3.7756890290        5.6574416226        4.3960461195
O         5.6576071108        5.6721740894        6.8026735311
O        11.3547772854       11.3508652706        1.9948004545
O        13.2367234471        3.7706605621        9.2074927766
O         3.7755760308       13.2381816388        4.3959348219
O        11.3531033886        5.6720664358        0.4081102761
O         5.6551349240       11.3510215314        5.2169476831
O         3.7758445492        3.7693478602        7.6234125378
O        13.2371276739       13.2367261733        2.8126545525
O        13.2368924142       11.3511032632        5.2167624597
O         3.7692266759        5.6719772388        0.4080252179
O         5.6721854955       13.2365915406        2.8114583338
O        11.3513219467        3.7689294303        7.6215083802
O         3.7706168844       11.3508555582        1.9943817550
O        13.2382994944        5.6722404535        6.8025002527
O        11.3510185881       13.2383473149        4.3979791677
O         5.6717505402        3.7710068550        9.2082433876
O         3.7707225215        7.5670190926        1.9951258489
O        13.2383875477        9.4629336159        6.7998727167
O         7.5669441665        5.6576261013        4.3986860475
O         9.4629176346       11.3548675024        9.2051181631
O        13.2367458641        7.5670402897        5.2150982418
O         3.7689430758        9.4633321626        0.4095743802
O         9.4629445540        5.6549241493        2.8139476919
O         7.5668981693       11.3531455238        7.6206979853
O        11.3530625271        9.4633832322        0.4101941739
O         5.6557291807        7.5670347982        5.2151204585
O         5.6575767808        9.4628249019        6.8000054652
O        11.3544891372        7.5668102807        1.9952326034
O         9.4628668702        3.7710284617        9.2052260844
O         7.5669190833       13.2381187497        4.3986776022
O         7.5670182375        3.7693598565        7.6203420951
O         9.4630192802       13.2366244641        2.8141485412
O         7.5840262083        0.0012930941        1.9945856000
O         9.4696700045        1.8874527744        6.8016929621
O         0.0014072490        9.4698968025        4.3982895021
O         1.8873782041        7.5840080389        9.2071000745
O         9.4682662063        0.0015610207        5.2167506433
O         7.5814852318        1.8877027618        0.4094464926
O         1.8876426410        9.4678317675        2.8126524829
O         0.0017854369        7.5817729379        7.6219983012
O         7.5830889268        3.7758111170        1.9921590744
O         9.4699080009       13.2368304340        6.8019465539
O        11.3510762108        9.4695996502        4.3977180924
O         5.6720189947        7.5833162441        9.2078334107
O         9.4677675121        3.7758451483        5.2179440513
O         7.5814501383       13.2372685362        0.4083991128
O         5.6719447835        9.4674911866        2.8113109177
O        11.3512079654        7.5818859486        7.6219168553
O         3.7759455626        7.5813506653        7.6236487550
O        13.2369801858        9.4678514549        2.8122314051
O        13.2368438378        7.5843429349        9.2067665651
O         3.7757342633        9.4693936752        4.3960302783
O         9.4695315362        5.6718729306        6.8030491085
O         7.5837451819       11.3509502068        1.9938295812
O         7.5808973106        5.6723877866        0.4073244272
O         9.4681224749       11.3512585407        5.2161017687
O         7.5830355113        7.5665476346        1.9957601058
O         9.4693288611        9.4629853894        6.7998665351
O         7.5667961704        9.4692717687        4.3991613417
O         9.4626649916        7.5837124546        9.2055396891
O         9.4678962116        7.5667506234        5.2156786141
O         7.5810627602        9.4628594801        0.4109311142
O         9.4630322202        9.4675348988        2.8140271703
O         7.5669918589        7.5810300137        7.6205088729
     192
 i =        8, E =     -5783.4159376600
Ti         0.0006528202        0.0019089879       -0.0007897668
Ti         1.8886002278        1.8881429100        4.8083945890
Ti         0.0013306690        1.8892465327        2.4033004789
Ti         1.8887781541        0.0016290960        7.2114442172
Ti         0.0015070399        3.7757812363        0.0021990878
Ti         1.8885662689       13.2382644435        4.8065182740
Ti        11.3497925763        1.8877853220        2.4047888510
Ti         5.6693903367        0.0006463054        7.2161061391
Ti         1.8883451000        3.7761283495        7.2085216632
Ti         0.0008863696       13.2367102890        2.4049687903
Ti         5.6696140240        1.8891401600        4.8040505044
Ti        11.3501938104        0.0000602849       -0.0023028235
Ti         3.7771150410        0.0003753062       -0.0040679989
Ti        13.2374413316        1.8891483950        4.8099196015
Ti        13.2370554754        0.0006447911        7.2102612613
Ti         3.7760378846        1.8878675378        2.4065912116
Ti         1.8884925976        5.6699705129        4.8128136927
Ti         0.0010226258       11.3488924181        0.0008355251
Ti         0.0008855278        5.6692566368        2.3987614197
Ti         1.8882423629       11.3496029819        7.2103529706
Ti         0.0009507026        7.5698248272        0.0049938221
Ti         1.8888338011        9.4616583758        4.8097805300
Ti         7.5694946140        1.8895138025        2.4090204887
Ti         9.4624459086        0.0014149698        7.2135238648
Ti         1.8887916550        7.5695170721        7.2060554485
Ti         0.0016561524        9.4632020255        2.4014297079
Ti         9.4625253483        1.8882032654        4.8068715585
Ti         7.5692953608        0.0020662533       -0.0069260426
Ti         3.7764758724        3.7774357483       -0.0011417669
Ti        13.2376683993       13.2369931904        4.8083201897
Ti        11.3502577557        5.6704587832        2.4001827494
Ti         5.6698270886       11.3503243237        7.2145204462
Ti        13.2377739403        3.7769958742        7.2068325173
Ti         3.7765820485       13.2379285997        2.4081314501
Ti         5.6699272194        5.6693010175        4.8083195458
Ti        11.3498855621       11.3508582291       -0.0009703097
Ti        11.3505448622       13.2383711353        2.4060791803
Ti         5.6697366007        3.7768404862        7.2130582022
Ti         3.7763605217       11.3506243061       -0.0024461710
Ti        13.2374503219        5.6690983982        4.8144552645
Ti         5.6698539296       13.2369923508        4.8023399017
Ti        11.3496695177        3.7771097382        0.0007141307
Ti        13.2375871399       11.3504480030        7.2089321165
Ti         3.7768925578        5.6707524718        2.4016621536
Ti         3.7768332490        7.5680537139        0.0020258409
Ti        13.2372079078        9.4627297283        4.8116533837
Ti         7.5687928244        5.6692625557        2.4046628363
Ti         9.4620849269       11.3496777221        7.2121299011
Ti        13.2373296963        7.5689709713        7.2045820851
Ti         3.7761752843        9.4618362500        2.4049215180
Ti         9.4622232687        5.6701377908        4.8112675180
Ti         7.5696832533       11.3490352176       -0.0052903675
Ti        11.3497234714        9.4617677777        2.4031033259
Ti         5.6693954779        7.5689317772        7.2104817667
Ti         5.6698008040        9.4627463433        4.8053461740
Ti        11.3502223157        7.5683703212        0.0035340856
Ti         9.4620194709        3.7760515464        7.2102480959
Ti         7.5686977254       13.2366839491        2.4108610620
Ti         7.5692664115        3.7758666333       -0.0036682095
Ti         9.4622660272       13.2380128214        4.8053891114
Ti         7.5689764435        7.5696740624       -0.0008482443
Ti         9.4623302058        9.4616961803        4.8084949875
Ti         7.5691030519        9.4628618872        2.4076129853
Ti         9.4625102207        7.5696035759        7.2075325856
O         0.0014826389        0.0012489000        1.9943562716
O         1.8853512343        1.8873982464        6.8014852768
O         0.0013958264        1.8852465626        4.3977335778
O         1.8872251978        0.0019744577        9.2075785539
O         1.8839708248        0.0016227658        5.2168702827
O         0.0000982641        1.8875554736        0.4090574771
O         1.8875680352        1.8835104411        2.8122923608
O         0.0017865789        0.0001623901        7.6218222507
O         0.0015502646        3.7756889580        1.9919215249
O         1.8855092638       13.2368193227        6.8019016705
O        11.3511415165        1.8852707551        4.3974507340
O         5.6721453214        0.0019561731        9.2080065927
O         1.8838614106        3.7758388297        5.2179872586
O        -0.0000345082       13.2373104457        0.4080091420
O         5.6720816848        1.8836524802        2.8110751565
O        11.3513227950        0.0000717235        7.6217791131
O         3.7758339461        0.0002946772        7.6239287273
O        13.2370055643        1.8835613740        2.8121514785
O        13.2368748654        0.0017745877        9.2068840979
O         3.7757474942        1.8853595200        4.3955102101
O         1.8855358613        5.6719725295        6.8027853979
O         0.0014604761       11.3510698669        1.9936563899