     192
 i =        1, E =     -5770.1140155795
Ti         0.0006286185        0.0006258664       -0.0000017964
Ti        -0.0010053011       -0.0010114037       -0.0000053128
Ti         0.0006313896       -0.0010261748       -0.0006285205
Ti        -0.0010295306        0.0006278362        0.0006311473
Ti         0.0006360009       -0.0014780927        0.0003099054
Ti        -0.0010278644       -0.0006883390       -0.0006359221
Ti         0.0009820675       -0.0010041169        0.0000021431
Ti        -0.0003952332        0.0006342647        0.0004361882
Ti        -0.0009764826       -0.0014709841        0.0003209448
Ti         0.0006276254       -0.0006947370        0.0000026919
Ti        -0.0004054373       -0.0009615108        0.0001906849
Ti         0.0010022565        0.0006294431       -0.0006381144
Ti        -0.0014804400        0.0006338215       -0.0003098456
Ti        -0.0006878296       -0.0010287723        0.0006302405
Ti        -0.0006889626        0.0006290539        0.0000014480
Ti        -0.0014712041       -0.0009787968       -0.0003090315
Ti        -0.0009634557       -0.0003928031       -0.0002011164
Ti         0.0006346476        0.0010065033        0.0006387983
Ti         0.0006406787       -0.0003964589       -0.0004326991
Ti        -0.0010038332        0.0009806032        0.0000013194
Ti         0.0006459053        0.0004570135        0.0004390160
Ti        -0.0009842007        0.0014833091       -0.0003183497
Ti         0.0004608766       -0.0009609312       -0.0001937291
Ti         0.0014985113        0.0006300121        0.0003136721
Ti        -0.0009566203        0.0004678046        0.0001952728
Ti         0.0006342925        0.0015024012       -0.0003013193
Ti         0.0014879202       -0.0009802364        0.0003119676
Ti         0.0004599565        0.0006386936       -0.0004395578
Ti        -0.0014528278       -0.0014512932       -0.0000029117
Ti        -0.0006827127       -0.0006901711       -0.0000045495
Ti         0.0009343538       -0.0003988095        0.0002002105
Ti        -0.0004048806        0.0009311777       -0.0001940068
Ti        -0.0006911705       -0.0014815244       -0.0003089243
Ti        -0.0014840794       -0.0006899488        0.0003179923
Ti        -0.0004038226       -0.0004042306       -0.0000027761
Ti         0.0009791552        0.0009810811       -0.0000006523
Ti         0.0010039346       -0.0006926106        0.0006360381
Ti        -0.0004085229       -0.0014399554        0.0001125173
Ti        -0.0014757155        0.0009542024        0.0003098232
Ti        -0.0006923717       -0.0003902708        0.0004346443
Ti        -0.0004045539       -0.0006893078       -0.0004375582
Ti         0.0009575126       -0.0014752506       -0.0003121039
Ti        -0.0006929800        0.0009994651       -0.0006379511
Ti        -0.0014433036       -0.0004021281       -0.0001091559
Ti        -0.0014446079        0.0004610223        0.0001051787
Ti        -0.0006935711        0.0014951867        0.0003080680
Ti         0.0004655156       -0.0004038843        0.0000043053
Ti         0.0014925680        0.0009476742       -0.0003160771
Ti        -0.0006957407        0.0004637365       -0.0004482114
Ti        -0.0014641112        0.0014674092        0.0000033024
Ti         0.0014582847       -0.0003947879        0.0001027019
Ti         0.0004644940        0.0009331001        0.0001896224
Ti         0.0009532465        0.0014849871        0.0003224026
Ti        -0.0004090456        0.0004710566       -0.0000010265
Ti        -0.0004124630        0.0014526124       -0.0000967603
Ti         0.0009290618        0.0004701237       -0.0001934333
Ti         0.0014704901       -0.0014566824       -0.0000015272
Ti         0.0004612723       -0.0006872845        0.0004404492
Ti         0.0004597784       -0.0014434607       -0.0001077160
Ti         0.0015006257       -0.0006904214       -0.0003118339
Ti         0.0004667780        0.0004685349        0.0000018186
Ti         0.0014864469        0.0014608198        0.0000061233
Ti         0.0004768587        0.0014481841        0.0001027129
Ti         0.0014602520        0.0004797556       -0.0001149117
O        -0.0001549303        0.0001055176       -0.0014638418
O         0.0007875777        0.0003764621       -0.0013952478
O         0.0001270480        0.0008398396       -0.0011631759
O         0.0004043611       -0.0001497683       -0.0016674803
O         0.0008392591        0.0001230071        0.0011718300
O        -0.0001503057        0.0004096002        0.0016672163
O         0.0003841329        0.0007820172        0.0013948554
O         0.0001018846       -0.0001564867        0.0014640700
O        -0.0001603525       -0.0005706313       -0.0014734653
O         0.0008374376       -0.0001325230       -0.0011669288
O        -0.0004009373        0.0007876699       -0.0013905421
O        -0.0001109176       -0.0001557676       -0.0016046151
O         0.0007023103       -0.0005691313        0.0011988158
O        -0.0001580701       -0.0001148238        0.0014656891
O        -0.0001098600        0.0006817790        0.0013399346
O        -0.0004250382       -0.0001506688        0.0016676415
O        -0.0005684169       -0.0001528976        0.0014704882
O        -0.0001344416        0.0008379026        0.0011622464
O        -0.0001139386       -0.0001540342       -0.0014654453
O        -0.0005704638        0.0007053626       -0.0012047811
O         0.0006717284       -0.0001084806       -0.0013365851
O        -0.0001528192       -0.0004249770       -0.0016696466
O        -0.0001628442       -0.0001106445        0.0016020612
O         0.0007896969       -0.0004022606        0.0013953835
O        -0.0001585503        0.0001230378       -0.0016020217
O         0.0007009131        0.0005621582       -0.0012043723
O         0.0001238410        0.0006753731       -0.0013368944
O         0.0005581333       -0.0001552627       -0.0014691559
O         0.0006833817        0.0001233623        0.0013443694
O        -0.0001622718        0.0005570561        0.0014658301
O         0.0005596587        0.0007083775        0.0012000120
O         0.0001235351       -0.0001507162        0.0016022926
O        -0.0004350613        0.0001419129       -0.0010904153
O         0.0001981988        0.0004110663       -0.0016733023
O         0.0001516562       -0.0007096802       -0.0010840018
O         0.0003848852       -0.0008002793       -0.0014018378
O         0.0001964776        0.0001114704        0.0014690937
O        -0.0004375436        0.0003547243        0.0013242844
O         0.0003394560       -0.0007150653        0.0013011202
O         0.0001286495       -0.0008460216        0.0011678819
O        -0.0008013973        0.0003819366        0.0014018313
O        -0.0007106162        0.0001537230        0.0010891724
O        -0.0007099759        0.0003404459       -0.0013032470
O        -0.0008490436        0.0001241365       -0.0011753252
O         0.0003564322       -0.0004396052       -0.0013213874
O         0.0001114604        0.0002023333       -0.0014712568
O         0.0001402684       -0.0004310390        0.0010842701
O         0.0004092341        0.0001989602        0.0016728258
O        -0.0004725483       -0.0005688850       -0.0011263895
O         0.0002092225       -0.0001173050       -0.0014630124
O        -0.0003564911       -0.0007119213       -0.0012957589
O        -0.0001139761       -0.0006875060       -0.0013356745
O         0.0001876370       -0.0005680239        0.0014786475
O        -0.0004239062       -0.0001513037        0.0010883358
O        -0.0001218527       -0.0007373459        0.0011376249
O        -0.0004029009       -0.0008009880        0.0013998336
O        -0.0008475227       -0.0001321275        0.0011726911
O        -0.0007273860       -0.0005857375        0.0010534586
O        -0.0005693728       -0.0007129665        0.0012089376
O        -0.0001592513       -0.0007132215        0.0010810239
O        -0.0007084555       -0.0001603633       -0.0010854424
O        -0.0007129022       -0.0005711832       -0.0012069167
O        -0.0001331193       -0.0008539952       -0.0011658086
O        -0.0005861998       -0.0007281464       -0.0010455890
O        -0.0007377981       -0.0001249040       -0.0011391736
O        -0.0008022685       -0.0004052661       -0.0013999322
O        -0.0001489690       -0.0004274335       -0.0010874690
O        -0.0005691583        0.0001860353       -0.0014767748
O        -0.0006887196       -0.0001104999        0.0013350552
O        -0.0007093525       -0.0003596981        0.0012927991
O        -0.0005710533       -0.0004750987        0.0011227634
O        -0.0001154049        0.0002106792        0.0014662719
O         0.0001878399       -0.0004306464        0.0016700829
O        -0.0004787727       -0.0001127295        0.0012552148
O        -0.0001065310        0.0001828790        0.0016065055
O        -0.0003734135       -0.0004345447        0.0013186845
O        -0.0004325962       -0.0003763688       -0.0013204205
O         0.0001907152       -0.0001113222       -0.0016050028
O        -0.0004273553        0.0001926102       -0.0016679969
O        -0.0001117664       -0.0004777985       -0.0012526586
O        -0.0004771652        0.0001282032       -0.0012562633
O         0.0001924164        0.0005584416       -0.0014712146
O         0.0001350097       -0.0007355737       -0.0011348977
O         0.0005589673       -0.0007135651       -0.0012058011
O         0.0001868882        0.0001218846        0.0016087807
O        -0.0004684705        0.0005584945        0.0011234688
O         0.0005747756       -0.0007310697        0.0010452088
O         0.0001260754       -0.0006848791        0.0013352624
O        -0.0007088790        0.0005615339        0.0012090976
O        -0.0007380621        0.0001343347        0.0011337288
O        -0.0007244063        0.0005784341       -0.0010454444
O        -0.0006881263        0.0001247210       -0.0013434151
O         0.0005617061       -0.0004687805       -0.0011153327
O         0.0001218301        0.0001817591       -0.0016062005
O         0.0001227116       -0.0004799695        0.0012446979
O         0.0005553810        0.0001888806        0.0014716740
O         0.0007633594        0.0001496624       -0.0010908169
O         0.0003741248        0.0003502848       -0.0013264408
O         0.0001434226        0.0003722708       -0.0010896855
O         0.0003422086        0.0007606664       -0.0013037891
O         0.0003689301        0.0001427678        0.0010958606
O         0.0007634445        0.0003386708        0.0013033458
O         0.0003571552        0.0003741661        0.0013291066
O         0.0001526718        0.0007626051        0.0010828953
O         0.0007823793       -0.0005888122       -0.0010490860
O         0.0003635912       -0.0001518844       -0.0010913426
O        -0.0003687715        0.0003794010       -0.0013323571
O        -0.0001242635        0.0007904704       -0.0011373389
O         0.0004154202       -0.0005716489        0.0011229221
O         0.0007616856       -0.0001556373        0.0010861258
O        -0.0001123635        0.0004299768        0.0012474514
O        -0.0003607504        0.0007601678        0.0013013453
O        -0.0005878872        0.0007833164        0.0010532913
O        -0.0001553649        0.0003659732        0.0010875162
O        -0.0001602385        0.0007602854       -0.0010791063
O        -0.0005775886        0.0004135056       -0.0011305826
O         0.0004232024       -0.0001101483       -0.0012503929
O         0.0007601802       -0.0003598375       -0.0012907304
O         0.0007912660       -0.0001220018        0.0011350962
O         0.0003648856       -0.0003798109        0.0013201716
O         0.0007919134        0.0001356114       -0.0011379137
O         0.0004071388        0.0005647917       -0.0011331640
O         0.0001267290        0.0004335068       -0.0012463935
O         0.0005775402        0.0007749397       -0.0010523817
O         0.0004091458        0.0001262193        0.0012630398
O         0.0007760634        0.0005756926        0.0010455453
O         0.0005655529        0.0004157055        0.0011306698
O         0.0001376068        0.0007903343        0.0011380283
     192
 i =        2, E =     -5770.1156469302
Ti         0.0000973082        0.0001014442        0.0000010328
Ti         0.0001155407        0.0001106846       -0.0000013710
Ti         0.0000889950        0.0001522832        0.0005732540
Ti         0.0001491135        0.0000902253       -0.0005834691
Ti         0.0000829398       -0.0007234942        0.0002492607
Ti         0.0001523794       -0.0000622845        0.0005655314
Ti        -0.0001483694        0.0001179865       -0.0000246093
Ti        -0.0009386828        0.0000776058       -0.0001365049
Ti         0.0000825779       -0.0007417565       -0.0008034313
Ti         0.0001002237       -0.0000760653        0.0000069953
Ti        -0.0009358188        0.0000555271       -0.0004366672
Ti        -0.0001825487        0.0000903299        0.0006018111
Ti        -0.0007217792        0.0000845788       -0.0002408138
Ti        -0.0000651736        0.0001510922       -0.0005653995
Ti        -0.0000728675        0.0001066058       -0.0000073906
Ti        -0.0007457464        0.0000833237        0.0008079322
Ti         0.0000529138       -0.0009323793        0.0004409803
Ti         0.0000861641       -0.0001812871       -0.0005915993
Ti         0.0000756796       -0.0009417928        0.0001344956
Ti         0.0001187888       -0.0001493088        0.0000158520
Ti         0.0000756562        0.0009935284       -0.0001273424
Ti         0.0000874121        0.0006910730        0.0007998816
Ti         0.0009957257        0.0000569723        0.0004451443
Ti         0.0006688931        0.0000872244        0.0002368579
Ti         0.0000562555        0.0009937293       -0.0004484834
Ti         0.0000836350        0.0006736483       -0.0002378548
Ti         0.0006917336        0.0000835027       -0.0007997440
Ti         0.0009962678        0.0000781599        0.0001322571
Ti        -0.0007579892       -0.0007558176        0.0000037591
Ti        -0.0000746883       -0.0000772386       -0.0000052299
Ti        -0.0000863613       -0.0009370338       -0.0004632606
Ti        -0.0009321194       -0.0000909604        0.0004568241
Ti        -0.0000652097       -0.0007229295       -0.0002523306
Ti        -0.0007230296       -0.0000644847        0.0002554124
Ti        -0.0009360882       -0.0009408435        0.0000044778
Ti        -0.0001493042       -0.0001486292        0.0000045721
Ti        -0.0001811629       -0.0000659317       -0.0005897351
Ti        -0.0009331780       -0.0007806675       -0.0003251985
Ti        -0.0007371106       -0.0001162246       -0.0008277586
Ti        -0.0000573997       -0.0009371886       -0.0001278101
Ti        -0.0009371058       -0.0000636455        0.0001294969
Ti        -0.0001153244       -0.0007399460        0.0008313325
Ti        -0.0000661787       -0.0001853571        0.0005860130
Ti        -0.0007829236       -0.0009344789        0.0003178015
Ti        -0.0007777164        0.0009902512       -0.0003214612
Ti        -0.0000691322        0.0006726373        0.0002450199
Ti         0.0010020744       -0.0009434698        0.0000058202
Ti         0.0006830937       -0.0001199389        0.0008167945
Ti        -0.0000576190        0.0009940592        0.0001175317
Ti        -0.0007548624        0.0007092963        0.0000060512
Ti         0.0007309154       -0.0009309435       -0.0003194941
Ti         0.0009898226       -0.0000897985       -0.0004687486
Ti        -0.0001138289        0.0006911132       -0.0008150314
Ti        -0.0009375211        0.0010035159       -0.0000027712
Ti        -0.0009284220        0.0007408243        0.0003292701
Ti        -0.0000880161        0.0009889986        0.0004664163
Ti         0.0007089345       -0.0007529186       -0.0000048402
Ti         0.0009947596       -0.0000599258       -0.0001192857
Ti         0.0009937743       -0.0007805072        0.0003254653
Ti         0.0006667850       -0.0000659374       -0.0002466380
Ti         0.0009971752        0.0009992809       -0.0000034286
Ti         0.0007031426        0.0007091182        0.0000076288
Ti         0.0009907607        0.0007365405       -0.0003130826
Ti         0.0007281492        0.0009917437        0.0003121052
O         0.0001920590        0.0005845258       -0.0000712527
O        -0.0005433851       -0.0003364317        0.0002083096
O         0.0005494719       -0.0005912303        0.0002099692
O        -0.0003413743        0.0001895383       -0.0000609579
O        -0.0005899787        0.0005476018       -0.0002042375
O         0.0001929950       -0.0003378123        0.0000599639
O        -0.0003303760       -0.0005400265       -0.0002069709
O         0.0005799434        0.0001926436        0.0000716548
O         0.0001998185        0.0003696623       -0.0007073604
O        -0.0005924181       -0.0005236302        0.0002224387
O         0.0003410759       -0.0005447779        0.0002438656
O         0.0000280779        0.0001810869       -0.0004132233
O        -0.0004682786        0.0003517377        0.0004084713
O         0.0001938002       -0.0005632175        0.0000593506
O         0.0000245169       -0.0004666640        0.0001149593
O         0.0003524819        0.0001894886        0.0000257259
O         0.0003726625        0.0001940872        0.0007079834
O        -0.0005234039       -0.0005929549       -0.0002213585
O        -0.0005570570        0.0001932854       -0.0000605891
O         0.0003500238       -0.0004708968       -0.0004153701
O        -0.0004627738        0.0000292058       -0.0001092387
O         0.0001943307        0.0003528366       -0.0000239024
O         0.0001877947        0.0000302377        0.0004085220
O        -0.0005447742        0.0003446198       -0.0002422373
O         0.0001855047       -0.0000348587       -0.0004212895
O        -0.0004719151       -0.0003628831       -0.0004041226
O        -0.0000316507       -0.0004650768       -0.0001299263
O        -0.0003851579        0.0001931708       -0.0007029042
O        -0.0004663640       -0.0000316220        0.0001317005
O         0.0002005355       -0.0003858564        0.0006938927
O        -0.0003662492       -0.0004734317        0.0004067008
O        -0.0000340805        0.0001791728        0.0004280160
O         0.0005967340        0.0005139424        0.0002303131
O        -0.0002265456       -0.0003355897       -0.0000640146
O         0.0005025588       -0.0005388497        0.0004402799
O        -0.0003272456        0.0005658375        0.0002025602
O        -0.0002291910        0.0005849083        0.0000749054
O         0.0005947598       -0.0003209589       -0.0002112671
O        -0.0003172921       -0.0005365238       -0.0004028852
O         0.0005501215        0.0006146028       -0.0002044717
O         0.0005665563       -0.0003280870       -0.0002002544
O        -0.0005342636        0.0004987656       -0.0004408639
O        -0.0005378396       -0.0003112276        0.0004009704
O         0.0006143481        0.0005506868        0.0001999171
O        -0.0003224390        0.0005931815        0.0002122107
O         0.0005773563       -0.0002343981       -0.0000764871
O         0.0005186470        0.0005958224       -0.0002330061
O        -0.0003348221       -0.0002294595        0.0000649581
O         0.0006120708        0.0003433576       -0.0004162342
O        -0.0002302234       -0.0005619943       -0.0000573915
O         0.0003190031       -0.0005392938        0.0004413954
O         0.0000261818        0.0004864805       -0.0001172779
O        -0.0002249036        0.0003728604        0.0007104446
O         0.0005934941       -0.0004893498       -0.0002431671
O         0.0000300882       -0.0005852651       -0.0000578781
O         0.0003403427        0.0005698222       -0.0002372408
O         0.0006176011       -0.0005281256       -0.0002144766
O        -0.0005542670        0.0003334007        0.0002236081
O         0.0003509403        0.0004933308        0.0004216830
O        -0.0004797800       -0.0005351893       -0.0004531103
O        -0.0005369230       -0.0004759010        0.0004521344
O         0.0004958416        0.0003490284       -0.0004205763
O        -0.0005257044        0.0006203905        0.0002168606
O         0.0003291031       -0.0005559482       -0.0002208753
O        -0.0005802535        0.0000247354        0.0000593906
O         0.0005706716        0.0003486679        0.0002351611
O        -0.0004930723        0.0005915869        0.0002403294
O         0.0003725040       -0.0002226439       -0.0007127730
O         0.0004870574        0.0000275475        0.0001165898
O        -0.0005357711        0.0003152430       -0.0004419248
O         0.0003366883        0.0006149024        0.0004148825
O        -0.0005559044       -0.0002354102        0.0000626436
O        -0.0002245191        0.0003487620        0.0000246633
O         0.0005987762        0.0000334610        0.0001462382
O         0.0000287774       -0.0001995243        0.0004148016
O         0.0003309858        0.0005872250       -0.0002489217
O         0.0005817054        0.0003270879        0.0002477035
O        -0.0002060927        0.0000319973       -0.0004108458
O         0.0003477441       -0.0002285330       -0.0000237760
O         0.0000310487        0.0006004013       -0.0001486830
O         0.0006002330       -0.0000402583       -0.0001596421
O        -0.0002235380       -0.0003880624       -0.0006979652
O        -0.0000319114       -0.0005839205        0.0000453458
O        -0.0003660986        0.0004926882       -0.0004109183
O        -0.0002089085       -0.0000347475        0.0004277415
O         0.0006094307       -0.0003546770        0.0004060551
O        -0.0003452728       -0.0005495974        0.0002123667
O        -0.0000320802        0.0004853624        0.0001344303
O         0.0004894146       -0.0003696533        0.0004125554
O        -0.0005803624       -0.0000280233       -0.0000520779
O        -0.0005532841       -0.0003450837       -0.0002113035
O         0.0004846352       -0.0000326341       -0.0001351840
O        -0.0003556227        0.0006111276       -0.0004011528
O        -0.0000346055       -0.0001999594       -0.0004302652
O        -0.0000385748        0.0005993417        0.0001529268
O        -0.0003885902       -0.0002229582        0.0007023601
O         0.0004797150        0.0005009851        0.0004380110
O        -0.0005602161       -0.0003186503        0.0002028010
O         0.0005161795       -0.0005605356        0.0002188727
O        -0.0003134154        0.0004842440        0.0003990430
O        -0.0005625409        0.0005115986       -0.0002180383
O         0.0004815790       -0.0003099777       -0.0004011400
O        -0.0003240364       -0.0005629466       -0.0001996583
O         0.0005043015        0.0004782892       -0.0004403658
O         0.0004909955        0.0003320877       -0.0002240394
O        -0.0005595661       -0.0004910046        0.0002301456
O         0.0003315156       -0.0005601428        0.0002323000
O         0.0000264631        0.0005212109        0.0000518460
O        -0.0005827673        0.0003372600        0.0004188605
O         0.0004801880       -0.0004779773       -0.0004525208
O         0.0000304382       -0.0005744091        0.0001451493
O         0.0003182165        0.0004782935       -0.0004362929
O         0.0003314496        0.0004903964        0.0002296642
O        -0.0004904390       -0.0005636581       -0.0002310020
O        -0.0004790577        0.0004799338        0.0004539024
O         0.0003308069       -0.0005837798       -0.0004272291
O        -0.0005689699        0.0000341244       -0.0001468950
O         0.0004798605        0.0003176856        0.0004415515
O         0.0005224847        0.0000267317       -0.0000572757
O        -0.0005509340        0.0003306036       -0.0002398232
O         0.0005177102       -0.0000281271        0.0000443954
O        -0.0005740988       -0.0003544851       -0.0004184482
O        -0.0000387523       -0.0005741373       -0.0001600539
O        -0.0003457195        0.0004938805       -0.0002168279
O        -0.0005689025       -0.0000304032        0.0001668427
O         0.0004948046       -0.0003514693        0.0002103197
O        -0.0003448549       -0.0005903896        0.0004158497
O        -0.0000352802        0.0005132102       -0.0000380470
     192
 i =        3, E =     -5770.1159428327
Ti         0.0001952387        0.0001973281       -0.0000013165
Ti         0.0000085637        0.0000105473        0.0000012220
Ti         0.0001940148        0.0000062519        0.0000892809
Ti         0.0000047698        0.0001950541       -0.0000928927
Ti         0.0001947590        0.0000854641        0.0003575847
Ti         0.0000047387       -0.0001882186        0.0000820229
Ti         0.0000015930        0.0000091206       -0.0000182630
Ti        -0.0002996485        0.0001928861        0.0005265603
Ti         0.0000108774        0.0000911468       -0.0004438350
Ti         0.0001956979       -0.0001922757        0.0000079187
Ti        -0.0003048156        0.0000137769       -0.0006036066
Ti         0.0000063190        0.0001930261        0.0001099050
Ti         0.0000885402        0.0001925632       -0.0003555335
Ti        -0.0001886096        0.0000053292       -0.0000800086
Ti        -0.0001899987        0.0001975186       -0.0000084823
Ti         0.0000891202        0.0000120373        0.0004435361
Ti         0.0000133438       -0.0003082800        0.0006059723
Ti         0.0001922739        0.0000075247       -0.0001099187
Ti         0.0001939997       -0.0002991212       -0.0005247289
Ti         0.0000054450        0.0000021978        0.0000161551
Ti         0.0001913347        0.0002811814        0.0005153813
Ti         0.0000115914       -0.0000947118        0.0004227110
Ti         0.0002879696        0.0000142804        0.0005969250
Ti        -0.0000940545        0.0001939541        0.0003355309
Ti         0.0000099799        0.0002851816       -0.0005955633
Ti         0.0001947641       -0.0000936812       -0.0003360681
Ti        -0.0000953541        0.0000134717       -0.0004225023
Ti         0.0002807009        0.0001912962       -0.0005162857
Ti         0.0000827275        0.0000847635        0.0000024501
Ti        -0.0001917785       -0.0001933211       -0.0000002005
Ti        -0.0000026468       -0.0003050438       -0.0006226038
Ti        -0.0003046589       -0.0000022341        0.0006233292
Ti        -0.0001877182        0.0000856195       -0.0003666205
Ti         0.0000861046       -0.0001857321        0.0003648933
Ti        -0.0003420529       -0.0003459657       -0.0000001378
Ti         0.0000042062        0.0000062999        0.0000009212
Ti         0.0000081490       -0.0001885812       -0.0001011578
Ti        -0.0003242163        0.0000824356        0.0001655036
Ti         0.0000890122       -0.0000016776       -0.0004601909
Ti        -0.0001855076       -0.0003007030        0.0005355366
Ti        -0.0002974913       -0.0001834369       -0.0005350676
Ti        -0.0000026164        0.0000889108        0.0004611105
Ti        -0.0001856969        0.0000099209        0.0000998539
Ti         0.0000817176       -0.0003284539       -0.0001675542
Ti         0.0000841991        0.0003075634        0.0001562552
Ti        -0.0001875698       -0.0000901362        0.0003452999
Ti         0.0003224228       -0.0003450749       -0.0000087091
Ti        -0.0000953495        0.0000024333        0.0004415320
Ti        -0.0001829283        0.0002788856       -0.0005245627
Ti         0.0000865538       -0.0000893795        0.0000189350
Ti        -0.0000875211       -0.0003294229        0.0001863172
Ti         0.0002858180       -0.0000024771       -0.0006134538
Ti        -0.0000003681       -0.0000962748       -0.0004390857
Ti        -0.0003406726        0.0003217281        0.0000147352
Ti        -0.0003201837       -0.0000848982       -0.0001879183
Ti        -0.0000023283        0.0002838725        0.0006125529
Ti        -0.0000902508        0.0000853992       -0.0000196350
Ti         0.0002801653       -0.0001838678        0.0005267079
Ti         0.0003097304        0.0000826729       -0.0001552180
Ti        -0.0000932039       -0.0001856871       -0.0003445995
Ti         0.0003208876        0.0003219904       -0.0000018449
Ti        -0.0000933305       -0.0000881478       -0.0000001429
Ti         0.0003016341       -0.0000867055        0.0001789340
Ti        -0.0000880716        0.0003009196       -0.0001735921
O        -0.0000939089       -0.0002693406        0.0001506262
O         0.0000356870        0.0001322266        0.0003645547
O        -0.0002686769        0.0000476248        0.0001355607
O         0.0001402394       -0.0000966538        0.0003575663
O         0.0000477708       -0.0002679749       -0.0001355589
O        -0.0000978271        0.0001396094       -0.0003562579
O         0.0001321165        0.0000364085       -0.0003640738
O        -0.0002695354       -0.0000933585       -0.0001497627
O        -0.0000995561        0.0000256958       -0.0001973367
O         0.0000503914        0.0002755518        0.0001335283
O        -0.0001261188        0.0000367178        0.0003776045
O         0.0001489397       -0.0000902828       -0.0000358948
O         0.0000270204        0.0000245008        0.0002325438
O        -0.0000932719        0.0002758358       -0.0001455009
O         0.0001452861        0.0000367725        0.0001102847
O        -0.0001336800       -0.0000949880       -0.0003692237
O         0.0000258353       -0.0000996971        0.0001979535
O         0.0002756773        0.0000502801       -0.0001322734
O         0.0002776817       -0.0000941760        0.0001469018
O         0.0000240418        0.0000255174       -0.0002331813
O         0.0000398489        0.0001465472       -0.0001096690
O        -0.0000963449       -0.0001365517        0.0003700170