     192
 i =        1, E =     -5770.1140155795
Ti        -0.0006912735       -0.0006984974        0.0000039174
Ti         1.8925158021        1.8925290257        4.8075155048
Ti        -0.0006803855        1.8925251152        2.4026501458
Ti         1.8925342953       -0.0006688874        7.2123707036
Ti        -0.0006537936        3.7811066821        0.0016467066
Ti         1.8925223034       13.2394744979        4.8064040140
Ti        11.3463247502        1.8925165233        2.4037214249
Ti         5.6738290813       -0.0006414197        7.2132826231
Ti         1.8925001095        3.7811333805        7.2107387502
Ti        -0.0007002703       13.2395120502        2.4037740073
Ti         5.6738439185        1.8924756286        4.8065882139
Ti        11.3463124735       -0.0006707977       -0.0010725561
Ti         3.7811162050       -0.0006444400       -0.0016423384
Ti        13.2394692559        1.8925171020        4.8086373402
Ti        13.2395024973       -0.0007122751        7.2112557746
Ti         3.7811401963        1.8924962610        2.4042697023
Ti         1.8924850356        5.6738140181        4.8084301350
Ti        -0.0006841639       11.3463078768        0.0010793438
Ti        -0.0006529555        5.6738326509        2.4017301711
Ti         1.8925085395       11.3463176416        7.2113056275
Ti        -0.0006539971        7.5651198219        0.0020011126
Ti         1.8925155642        9.4577760888        4.8080166924
Ti         7.5651185266        1.8924915633        2.4046560506
Ti         9.4577939844       -0.0006368359        7.2128623528
Ti         1.8924834447        7.5650911751        7.2103478076
Ti        -0.0006436006        9.4577837458        2.4021390594
Ti         9.4577705223        1.8924982464        4.8070160492
Ti         7.5651166194       -0.0006450227       -0.0019966635
Ti         3.7811510269        3.7811467358        0.0000015503
Ti        13.2394824938       13.2395081350        4.8075170619
Ti        11.3463559763        5.6738326236        2.4028075201
Ti         5.6738365054       11.3463634290        7.2122158860
Ti        13.2394513205        3.7811048333        7.2096129399
Ti         3.7811104006       13.2394513787        2.4053909705
Ti         5.6738210692        5.6738404938        4.8075109987
Ti        11.3463317472       11.3463236719       -0.0000091911
Ti        11.3463120511       13.2394881070        2.4048346387
Ti         5.6738474106        3.7811280262        7.2116443016
Ti         3.7811460491       11.3463496749       -0.0005486904
Ti        13.2394353090        5.6738199792        4.8095485478
Ti         5.6738413997       13.2394323062        4.8054774836
Ti        11.3463322137        3.7811452011        0.0005467466
Ti        13.2394809957       11.3463206340        7.2101738992
Ti         3.7811345730        5.6738270599        2.4033598035
Ti         3.7811401829        7.5651281563        0.0003950273
Ti        13.2394507589        9.4578002575        4.8091388829
Ti         7.5651138175        5.6738435587        2.4037405801
Ti         9.4577673625       11.3463445624        7.2118028908
Ti        13.2394421185        7.5651133218        7.2092522177
Ti         3.7811617847        9.4577638531        2.4037878322
Ti         9.4577652439        5.6738094838        4.8079336587
Ti         7.5651197852       11.3463598401       -0.0009316183
Ti        11.3463337789        9.4577860182        2.4032211253
Ti         5.6738383485        7.5651076239        7.2112761585
Ti         5.6738479997        9.4577710179        4.8070776409
Ti        11.3463660115        7.5651027304        0.0009373761
Ti         9.4577591135        3.7811431235        7.2112381720
Ti         7.5651159683       13.2394342035        2.4057677539
Ti         7.5651169324        3.7811462260       -0.0003808863
Ti         9.4577997651       13.2394486053        4.8058983803
Ti         7.5651183289        7.5651132381        0.0000023614
Ti         9.4577215221        9.4577669390        4.8074972435
Ti         7.5650831036        9.4577834639        2.4041555714
Ti         9.4577688167        7.5650772239        7.2108532637
O         0.0012177924        0.0024524037        1.9867262567
O         1.8834155991        1.8897298157        6.7923062358
O         0.0024181182        1.8832218497        4.3895964715
O         1.8896611443        0.0012072495        9.1968771652
O         1.8832215448        0.0024356758        5.2253940665
O         0.0012023885        1.8896447573        0.4181483452
O         1.8897091737        1.8834354672        2.8227237325
O         0.0024641419        0.0012243914        7.6283024780
O         0.0012240472        3.7815669287        1.9866493854
O         1.8832345499       13.2363328186        6.7933626714
O        11.3491116719        1.8834183829        4.3885127992
O         5.6727625790        0.0012131316        9.1982375057
O         1.8836492935        3.7815841085        5.2254010206
O         0.0012299402       13.2363090233        0.4170381158
O         5.6727813398        1.8837208002        2.8212474046
O        11.3491686876        0.0012098537        7.6294204621
O         3.7815647555        0.0011988880        7.6283868505
O        13.2363291673        1.8832330186        2.8216878785
O        13.2363046080        0.0012093466        9.1979847101
O         3.7815931091        1.8836464520        4.3896407226
O         1.8837639837        5.6727616926        6.7937478563
O         0.0012089166       11.3491707154        1.9856096751
O         0.0012319666        5.6727559897        0.4167924346
O         1.8834052747       11.3491135645        5.2265026553
O         0.0012184550        7.5662249118        1.9869385124
O         1.8836647527        9.4572996091        6.7933808406
O         7.5662166173        1.8837495693        4.3899955333
O         9.4573371665        0.0012140829        9.1978786520
O         1.8837176539        7.5662069998        5.2249927231
O         0.0012328188        9.4573384055        0.4171572853
O         9.4573191493        1.8836341806        2.8216562739
O         7.5662271755        0.0011947944        7.6280693577
O         3.7738328579        0.0024027040        1.9854268274
O        13.2371871465        1.8896384046        6.7931387471
O         0.0023851335        5.6700785681        4.3889075994
O         1.8897033506       11.3552501150        9.1960983888
O        13.2372070433        0.0024426879        5.2245401567
O         3.7738825559        1.8897759888        0.4192986296
O         1.8897849959        5.6700293847        2.8233194846
O         0.0024185336       11.3554125313        7.6291643123
O        11.3552564415        1.8897144885        0.4189241705
O         5.6700004178        0.0023790880        5.2260965984
O         5.6700456157        1.8897812826        6.7917062221
O        11.3554275960        0.0024287868        1.9858946744
O         1.8897748146        3.7738991033        9.1956981904
O         0.0024413506       13.2371900451        4.3904988479
O         0.0023999669        3.7738100281        7.6296157076
O         1.8896455983       13.2371879727        2.8218926051
O         3.7740047899        3.7815924514        1.9856706046
O        13.2371468940       13.2363167137        6.7942064248
O        11.3490438939        5.6700835519        4.3878957985
O         5.6727796838       11.3549182913        9.1975162279
O        13.2372526263        3.7815530096        5.2246215063
O         3.7737730019       13.2363571932        0.4183209280
O         5.6727673740        5.6700501995        2.8215570627
O        11.3491184925       11.3552494307        7.6302143027
O        11.3554137182       13.2363337227        0.4178736729
O         5.6700530009        3.7816038787        5.2257647143
O         3.7815795462       11.3549993657        7.6291149134
O        13.2363719961        5.6700175830        2.8223784150
O         5.6700412916       13.2363790521        6.7926669661
O        11.3549933692        3.7815869217        1.9859000560
O        13.2363294251       11.3554408515        9.1971109985
O         3.7816063222        5.6700712602        4.3892156857
O         5.6700086971        5.6727722841        6.7934668871
O        11.3552538823       11.3491203113        1.9847947804
O        13.2363488533        3.7737988259        9.1966934564
O         3.7815631712       13.2372543906        4.3903913725
O        11.3549212251        5.6727745197        0.4175109120
O         5.6700056939       11.3490537602        5.2271374370
O         3.7816199534        3.7740054065        7.6293668385
O        13.2363043391       13.2371503555        2.8208014101
O        13.2372376465       11.3491878494        5.2256770952
O         3.7740175245        5.6727864212        0.4176530493
O         5.6727536069       13.2372473184        2.8205451546
O        11.3490542894        3.7738860578        7.6306116728
O         3.7738921918       11.3490610096        1.9844124605
O        13.2372222150        5.6727503324        6.7944696798
O        11.3491693988       13.2372194043        4.3893340297
O         5.6727887105        3.7740047275        9.1973675956
O         3.7740047843        7.5662068620        1.9861021842
O        13.2372267836        9.4573458724        6.7941173562
O         7.5662007315        5.6700618245        4.3896744069
O         9.4573246751       11.3550017131        9.1971520600
O        13.2372470028        7.5662318467        5.2243136578
O         3.7739876866        9.4573061269        0.4181334147
O         9.4573007578        5.6700244666        2.8220898117
O         7.5662124055       11.3549066170        7.6287875926
O        11.3549879486        9.4573118255        0.4178566272
O         5.6700289249        7.5662107983        5.2253637699
O         5.6700583233        9.4572975188        6.7929285091
O        11.3549209629        7.5662221676        1.9862642709
O         9.4572977430        3.7739864573        9.1968586692
O         7.5662369109       13.2372534794        4.3907068166
O         7.5662062537        3.7740251861        7.6289746982
O         9.4573454172       13.2372376906        2.8209049128
O         7.5692389661        0.0023847120        1.9852042041
O         9.4650741509        1.8897871826        6.7919568188
O         0.0024095891        9.4651205086        4.3891932430
O         1.8897828012        7.5691979911        9.1954780991
O         9.4651450287        0.0024065473        5.2258040013
O         7.5692209257        1.8897868850        0.4195468318
O         1.8897901558        9.4650854844        2.8230580506
O         0.0023850885        7.5692621961        7.6298533627
O         7.5692333285        3.7816186340        1.9854867582
O         9.4651699741       13.2363683714        6.7929569679
O        11.3490234167        9.4650501807        4.3882088964
O         5.6727819513        7.5692140611        9.1972213561
O         9.4649370345        3.7815993795        5.2256310035
O         7.5692386214       13.2363687592        0.4185847216
O         5.6727810749        9.4648854673        2.8214570118
O        11.3490455954        7.5692718500        7.6308421628
O         3.7816111122        7.5692553907        7.6295220631
O        13.2363597494        9.4651646925        2.8220949039
O        13.2363709780        7.5692406908        9.1964060399
O         3.7816403253        9.4649477841        4.3894308996
O         9.4649069079        5.6727618873        6.7935715430
O         7.5692554790       11.3490518978        1.9841335780
O         7.5692147085        5.6727785799        0.4178145726
O         9.4651014432       11.3490661143        5.2268765222
O         7.5692591410        7.5662093632        1.9859212024
O         9.4649553286        9.4572764752        6.7931586740
O         7.5661936139        9.4648637524        4.3897766967
O         9.4572985856        7.5692289268        9.1967237582
O         9.4649810806        7.5661885171        5.2251655732
O         7.5692159958        9.4572971199        0.4183316309
O         9.4572699784        9.4649539643        2.8218562470
O         7.5662134121        7.5692774924        7.6290911416
     192
 i =        2, E =     -5770.1156469302
Ti         0.0010033193        0.0009962099        0.0000046453
Ti         1.8886127598        1.8886112223        4.8075081784
Ti         0.0009679954        1.8885272737        2.4017313906
Ti         1.8885313657        0.0009637049        7.2133127752
Ti         0.0009537890        3.7774790277        0.0029670449
Ti         1.8885292340       13.2375788261        4.8054564002
Ti        11.3501128830        1.8886047731        2.4036858496
Ti         5.6721536982        0.0008961968        7.2158038427
Ti         1.8886959237        3.7774949473        7.2103080626
Ti         0.0009935452       13.2375607815        2.4037964819
Ti         5.6721686016        1.8886511302        4.8049945984
Ti        11.3501886277        0.0009694516       -0.0019743151
Ti         3.7774819425        0.0009534443       -0.0029764177
Ti        13.2375859753        1.8885273834        4.8095717607
Ti        13.2375556716        0.0009816754        7.2112391414
Ti         3.7775115220        1.8886953619        2.4047078688
Ti         1.8886519282        5.6721608951        4.8100037899
Ti         0.0009687450       11.3501870557        0.0019680325
Ti         0.0008963491        5.6721558260        2.3992173376
Ti         1.8886042258       11.3501073698        7.2113556121
Ti         0.0009059912        7.5669946918        0.0044898431
Ti         1.8886910687        9.4614409365        4.8083883983
Ti         7.5669805092        1.8886608361        2.4062171384
Ti         9.4614701737        0.0009396700        7.2141453824
Ti         1.8886631665        7.5669691488        7.2087976299
Ti         0.0009476623        9.4614630586        2.4008871863
Ti         9.4614418758        1.8886890394        4.8066339415
Ti         7.5669919195        0.0009046981       -0.0045050225
Ti         3.7775410533        3.7775327342       -0.0000068550
Ti        13.2375598051       13.2375654404        4.8075151646
Ti        11.3500624352        5.6721702820        2.4011834685
Ti         5.6721657274       11.3500704217        7.2138489322
Ti        13.2376119516        3.7774727087        7.2082784946
Ti         3.7774766817       13.2376146555        2.4067447350
Ti         5.6721377208        5.6721533819        4.8075011023
Ti        11.3501201002       11.3501202718       -0.0000124089
Ti        11.3501855911       13.2375894295        2.4057451037
Ti         5.6721821919        3.7774437661        7.2126845128
Ti         3.7775001323       11.3500337341       -0.0010269859
Ti        13.2376574041        5.6721500919        4.8120756273
Ti         5.6721455140       13.2376631127        4.8029407153
Ti        11.3500288443        3.7775030607        0.0010288833
Ti        13.2375916482       11.3501880987        7.2092720435
Ti         3.7774485226        5.6721818189        2.4023359781
Ti         3.7774568771        7.5669685139        0.0013942458
Ti        13.2376173289        9.4614629584        4.8104154793
Ti         7.5669842582        5.6721575578        2.4037207929
Ti         9.4614557621       11.3500247780        7.2122129093
Ti        13.2376542574        7.5669984010        7.2067416202
Ti         3.7775323942        9.4614142675        2.4038532627
Ti         9.4614908478        5.6721684236        4.8090175374
Ti         7.5669861988       11.3500758620       -0.0025389699
Ti        11.3500180528        9.4614535018        2.4028072570
Ti         5.6721539328        7.5669884519        7.2113006011
Ti         5.6721739965        9.4614787511        4.8059922507
Ti        11.3500648400        7.5669908176        0.0025404506
Ti         9.4614114502        3.7775180529        7.2111754923
Ti         7.5669988704       13.2376624046        2.4082815728
Ti         7.5669582401        3.7774599101       -0.0013941851
Ti         9.4614768716       13.2376038762        4.8046120209
Ti         7.5669962003        7.5669926439        0.0000002349
Ti         9.4614147536        9.4613946571        4.8074974884
Ti         7.5669596540        9.4614841520        2.4052223231
Ti         9.4614947810        7.5669612661        7.2097822933
O         0.0005301015        0.0004384315        1.9805729506
O         1.8865042702        1.8888475780        6.7850273064
O         0.0004984640        1.8866299420        4.3835783771
O         1.8888304848        0.0005526470        9.1895324855
O         1.8866253506        0.0005008414        5.2314400642
O         0.0005423003        1.8888217496        0.4255066222
O         1.8888436034        1.8864892438        2.8299924496
O         0.0004476984        0.0005270423        7.6344590881
O         0.0004990081        3.7775988029        1.9816121470
O         1.8866292097       13.2380465007        6.7873008253
O        11.3498513070        1.8865086092        4.3811901165
O         5.6713694419        0.0005187823        9.1939904640
O         1.8861849106        3.7776701533        5.2303355153
O         0.0005232467       13.2381080129        0.4232308495
O         5.6713987324        1.8861282678        2.8254090345
O        11.3498614567        0.0005493027        7.6368227864
O         3.7775978348        0.0005203815        7.6334095274
O        13.2380459225        1.8866306888        2.8277306031
O        13.2381012970        0.0005252454        9.1917987094
O         3.7776734191        1.8862036544        4.3846978342
O         1.8861117038        5.6713827842        6.7895783958
O         0.0005324653       11.3498607958        1.9781935542
O         0.0004918508        5.6713649009        0.4210449856
O         1.8865059168       11.3498420823        5.2338443785
O         0.0005056530        7.5677839838        1.9826501938
O         1.8861954439        9.4612572048        6.7883496275
O         7.5677602976        1.8861191702        4.3857970928
O         9.4613332661        0.0005232739        9.1927829911
O         1.8861359245        7.5677578983        5.2292184165
O         0.0004970961        9.4613340073        0.4222737710
O         9.4612664925        1.8862096097        2.8266667668
O         7.5677834832        0.0005313732        7.6323445610
O         3.7674548996        0.0005697641        1.9795096300
O        13.2380272285        1.8888156564        6.7857725256
O         0.0005670936        5.6634934424        4.3823556568
O         1.8888300641       11.3519877092        9.1888310745
O        13.2380398328        0.0004428063        5.2307031457
O         3.7675058139        1.8888794488        0.4264648143
O         1.8888102131        5.6633855968        2.8310335493
O         0.0004958477       11.3518682292        7.6351814257
O        11.3519879957        1.8888328792        0.4261957882
O         5.6633804200        0.0005725689        5.2326642133
O         5.6634448231        1.8888018085        6.7839773256
O        11.3518658004        0.0004944243        1.9798609715
O         1.8888860282        3.7675127054        9.1885414389
O         0.0004517422       13.2380601355        4.3843335369
O         0.0005632987        3.7674540614        7.6355150000
O         1.8888174950       13.2380338600        2.8292476732
O         3.7674094273        3.7777461159        1.9808722755
O        13.2380536036       13.2381087454        6.7880218159
O        11.3499000250        5.6634822688        4.3801212547
O         5.6713833125       11.3523796682        9.1933783501
O        13.2380345796        3.7775938185        5.2296697920
O         3.7674570893       13.2379818127        0.4242626242
O         5.6713630573        5.6632432896        2.8257609949
O        11.3498608941       11.3519809671        7.6375407494
O        11.3518584657       13.2380544473        0.4239271486
O         5.6633226905        3.7777020338        5.2308965655
O         3.7776598093       11.3522991783        7.6340488579
O        13.2379885164        5.6633846349        2.8289465518
O         5.6634516591       13.2379879881        6.7860840215
O        11.3522918388        3.7776688615        1.9809741873
O        13.2380509137       11.3518468483        9.1910752757
O         3.7777037054        5.6633422923        4.3841085315
O         5.6631836013        5.6713724105        6.7892485830
O        11.3519776310       11.3498435858        1.9774676051
O        13.2379857767        3.7674656557        9.1907683613
O         3.7775883368       13.2380250450        4.3853567344
O        11.3523744426        5.6713965175        0.4216518392
O         5.6633948453       11.3499053348        5.2349095192
O         3.7777656254        3.7673910638        7.6341529216
O        13.2380976577       13.2380688662        2.8269841248
O        13.2380181717       11.3498709821        5.2330929283
O         3.7673788734        5.6714124561        0.4216869414
O         5.6713696142       13.2379920483        2.8247941018
O        11.3498190714        3.7675322731        7.6378321844
O         3.7675548298       11.3498248810        1.9771910735
O        13.2380161638        5.6713599392        6.7902159956
O        11.3498712858       13.2380290208        4.3819287418
O         5.6714190384        3.7673689675        9.1933521346
O         3.7673731759        7.5677444534        1.9820239063
O        13.2380348203        9.4613455055        6.7889943950
O         7.5677586203        5.6632725618        4.3854291172
O         9.4612750541       11.3522976129        9.1921361320
O        13.2380208935        7.5677852033        5.2286116727
O         3.7674157769        9.4611792392        0.4230100706
O         9.4612278788        5.6632577945        2.8272821704
O         7.5677701175       11.3523833073        7.6329623166
O        11.3523137823        9.4612778791        0.4228805310
O         5.6632086089        7.5677556151        5.2296198237
O         5.6633516711        9.4612337468        6.7877337466
O        11.3523780728        7.5677733875        1.9820637773
O         9.4611835115        3.7674121171        9.1919981068
O         7.5677824358       13.2379921021        4.3864248049
O         7.5677276451        3.7673800816        7.6330227246
O         9.4613424981       13.2380238766        2.8260172381
O         7.5763774188        0.0005679586        1.9786412282
O         9.4710025361        1.8888694103        6.7848050230
O         0.0005698042        9.4710534330        4.3833129217
O         1.8888151029        7.5763034146        9.1877674306
O         9.4710616575        0.0005701706        5.2317136933
O         7.5763546830        1.8888071381        0.4272639718
O         1.8888879506        9.4710180182        2.8302104753
O         0.0005674156        7.5764033190        7.6363864400
O         7.5765144893        3.7777132916        1.9803777359
O         9.4710557235       13.2379842550        6.7870360095
O        11.3498121858        9.4710089461        4.3809892847
O         5.6713831335        7.5765510150        9.1930224790
O         9.4711257940        3.7777538008        5.2303990309
O         7.5763645716       13.2379923112        0.4251577793
O         5.6714197471        9.4711652316        2.8254567706
O        11.3498909259        7.5764003950        7.6386158335
O         3.7777120374        7.5765520084        7.6346293170
O        13.2379769294        9.4710661298        2.8280031368
O        13.2379858059        7.5763570966        9.1898478922
O         3.7777690531        9.4711254837        4.3846523510
O         9.4711442550        5.6714061973        6.7895687940
O         7.5763779898       11.3498959318        1.9763772296
O         7.5765575481        5.6713793392        0.4220161551
O         9.4709713442       11.3498134937        5.2340693950
O         7.5766232002        7.5677522204        1.9816646964
O         9.4710895875        9.4611756004        6.7882777800
O         7.5677346290        9.4711619413        4.3857482235
O         9.4612261725        7.5764545373        9.1915176256
O         9.4711400618        7.5677108858        5.2292370871
O         7.5764452009        9.4612322493        0.4235221188
O         9.4611667905        9.4711498632        2.8267338993
O         7.5677761293        7.5766362789        7.6333330204
     192
 i =        3, E =     -5770.1159428327
Ti         0.0002644664        0.0002625633        0.0000088965
Ti         1.8887712941        1.8887565927        4.8075059806
Ti         0.0002722469        1.8887869320        2.4032253508
Ti         1.8887849927        0.0002624430        7.2118146662
Ti         0.0002856123        3.7754288291        0.0024589703
Ti         1.8887883237       13.2382882985        4.8069624891
Ti        11.3499150338        1.8887650745        2.4037134017
Ti         5.6706710978        0.0002476190        7.2153831376
Ti         1.8887598527        3.7753990050        7.2092876181
Ti         0.0002688725       13.2383072003        2.4037778592
Ti         5.6706561772        1.8886500885        4.8038437098
Ti        11.3498906923        0.0002731001       -0.0005042100
Ti         3.7754292858        0.0002923861       -0.0024598758
Ti        13.2382923034        1.8887918660        4.8080609858
Ti        13.2383000257        0.0002614711        7.2112524342
Ti         3.7754134741        1.8887626845        2.4057276924
Ti         1.8886476598        5.6706620979        4.8111648931
Ti         0.0002734421       11.3498896486        0.0005080812
Ti         0.0002384269        5.6706647022        2.3996279069
Ti         1.8887716359       11.3499121782        7.2113225682
Ti         0.0002575459        7.5685736323        0.0040465176
Ti         1.8887504051        9.4634718556        4.8093931229
Ti         7.5685904737        1.8886621740        2.4073364990
Ti         9.4634543718        0.0002778887        7.2136168813
Ti         1.8886732427        7.5685898148        7.2076776207
Ti         0.0002820058        9.4634558318        2.4014102105
Ti         9.4634683814        1.8887464446        4.8056355567
Ti         7.5685765102        0.0002587447       -0.0040511704
Ti         3.7754353792        3.7754334758       -0.0000037601
Ti        13.2383023357       13.2383079623        4.8075129708
Ti        11.3500195767        5.6706590654        2.4000507724
Ti         5.6706590228       11.3500263768        7.2149697531
Ti        13.2382789614        3.7754297759        7.2088059107
Ti         3.7754302114       13.2382750377        2.4062215056
Ti         5.6705784751        5.6705937752        4.8075095571
Ti        11.3499144515       11.3499134614       -0.0000066474
Ti        11.3498897182       13.2383004327        2.4042714653
Ti         5.6706395896        3.7752956668        7.2128308659
Ti         3.7754149444       11.3499258267       -0.0020143680
Ti        13.2383070062        5.6706726157        4.8116451577
Ti         5.6706586653       13.2383022608        4.8033762328
Ti        11.3499235905        3.7754138762        0.0020241838
Ti        13.2382921335       11.3498800778        7.2107493126
Ti         3.7752946317        5.6706486061        2.4021851536
Ti         3.7753121394        7.5686018370        0.0015053770
Ti        13.2382746181        9.4634456875        4.8098738935
Ti         7.5686566878        5.6705950431        2.4036879295
Ti         9.4634701904       11.3499109117        7.2131736924
Ti        13.2383013331        7.5685794399        7.2072046415
Ti         3.7754230056        9.4634474378        2.4038679101
Ti         9.4635727258        5.6706475872        4.8091896217
Ti         7.5685917890       11.3500244630       -0.0036297161
Ti        11.3499239989        9.4634843076        2.4018383363
Ti         5.6705906965        7.5686613865        7.2113225757
Ti         5.6706300673        9.4635728035        4.8058359303
Ti        11.3500138977        7.5685979610        0.0036312667
Ti         9.4634520106        3.7754250876        7.2111597080
Ti         7.5685789208       13.2383100299        2.4078161626
Ti         7.5685907470        3.7753134333       -0.0015053561
Ti         9.4634487623       13.2382637019        4.8051507901
Ti         7.5686577765        7.5686527293        0.0000006967
Ti         9.4634560727        9.4634363828        4.8075068461
Ti         7.5686131745        9.4635687476        2.4053617039
Ti         9.4635653417        7.5686111935        7.2096472875
O         0.0013444372        0.0016595703        1.9792783943
O         1.8845440789        1.8873476394        6.7838171519
O         0.0016424470        1.8844943643        4.3838735318
O         1.8873406839        0.0013616439        9.1867628162
O         1.8844956304        0.0016372013        5.2311579848
O         0.0013684153        1.8873402247        0.4282704290
O         1.8873520993        1.8845383536        2.8312026343
O         0.0016601454        0.0013421982        7.6357609971
O         0.0013452678        3.7769529875        1.9783746343
O         1.8844842076       13.2369090170        6.7876346852
O        11.3513143769        1.8845411634        4.3800877193
O         5.6711729793        0.0012746934        9.1922696280
O         1.8844907123        3.7769499892        5.2319066593
O         0.0013421822       13.2368920304        0.4244848764
O         5.6711832381        1.8844107317        2.8254524602
O        11.3513220577        0.0013569339        7.6394873843
O         3.7769571017        0.0013475889        7.6366496833
O        13.2369099353        1.8844834497        2.8273924070
O        13.2368883128        0.0013473476        9.1905395907
O         3.7769524060        1.8845003424        4.3831067819
O         1.8844002402        5.6711776967        6.7895554870
O         0.0013619683       11.3513261976        1.9755381058