     192
 i =        1, E =     -5779.3487215009
Ti        -0.0631214470        0.0959581798        0.0647209735
Ti         1.8661992517        1.9231434654        4.8983932642
Ti         0.0466729060        2.0295390552        2.5297118497
Ti         1.8634832314       -0.0458002678        7.1735494794
Ti        -0.0327475280        3.8285523374       -0.0532353406
Ti         1.9492823935       13.1913386876        4.8332907833
Ti        11.2884055484        1.9806462686        2.4504123989
Ti         5.6068284434       -0.0898644986        7.2227162278
Ti         1.9046979086        3.8185263637        7.2352325170
Ti         0.0262434129       13.3455392202        2.4747088042
Ti         5.6777939917        1.8339948750        4.8272391517
Ti        11.3025387876        0.1150512053       -0.0441285622
Ti         3.6775164203        0.0961972952        0.0494047419
Ti        13.1229011662        1.7704447350        4.7051465252
Ti        13.2655935282       -0.0452673161        7.1545463879
Ti         3.7512906437        1.8032903292        2.5205781068
Ti         1.9711040983        5.6384975393        4.8512339849
Ti         0.0042296374       11.5762677499        0.0011395343
Ti        -0.0215900883        5.7239642856        2.4875002771
Ti         1.9008323901       11.3193494300        7.3605187171
Ti         0.0688131569        7.4927937864        0.0504339700
Ti         2.0402805742        9.5181946974        4.9041784748
Ti         7.4992052775        1.9559967608        2.3520963964
Ti         9.4678796525       -0.1305284134        7.2266014463
Ti         1.9469634962        7.5779681445        7.1609864687
Ti         0.1326475364        9.5813822714        2.4832917446
Ti         9.3287719277        1.8085452383        4.7670177563
Ti         7.4649264020       -0.0617322800       -0.0788929747
Ti         3.7299560012        3.7828443569       -0.0060419111
Ti        13.2358275874       13.1258248034        4.7430921749
Ti        11.3754261832        5.7266803290        2.3762651117
Ti         5.6773119508       11.3263344244        7.1527534639
Ti        13.1719036837        3.6797592848        7.2413739769
Ti         3.7731044100       13.1628506650        2.4442266141
Ti         5.6784985694        5.7203110126        4.8438817061
Ti        11.2234475400       11.3891588916        0.1067483697
Ti        11.2855527125       13.3353954592        2.3543620676
Ti         5.6568738744        3.7266237159        7.1296772575
Ti         3.8822324118       11.4218438648        0.0416994773
Ti        13.2864213433        5.5842485742        4.9008176238
Ti         5.7966768596       13.2078959917        4.8097787223
Ti        11.2693114055        3.7908356392       -0.0768805461
Ti        13.0942336977       11.3812762145        7.2643816872
Ti         3.7926880755        5.6114477733        2.3929894358
Ti         3.7988544239        7.5565696651        0.0460234752
Ti        13.3012933285        9.4205080903        4.8375570855
Ti         7.5219196338        5.6764301044        2.3897557193
Ti         9.4253353282       11.1438724856        7.1741425757
Ti        13.3038410933        7.5410459279        7.2329837492
Ti         3.8853186907        9.4449818651        2.3381182914
Ti         9.5201835352        5.5600750844        4.7067788957
Ti         7.5318838503       11.3441024747        0.0684796463
Ti        11.4037911897        9.4490975566        2.4127685992
Ti         5.6594634944        7.6058454377        7.2000112538
Ti         5.7779650560        9.4237116911        4.7433725168
Ti        11.3227733320        7.5732498891        0.0069555550
Ti         9.4270128123        3.6453910635        7.1670552800
Ti         7.5399283809       13.3072943192        2.4074374218
Ti         7.4643469109        3.7989986862       -0.0649537663
Ti         9.5108040880       13.2426657230        4.7808162998
Ti         7.5988767083        7.5346387186       -0.0569512373
Ti         9.5285810773        9.3932906452        4.7598344722
Ti         7.6391986475        9.4183089079        2.3234915706
Ti         9.5146756864        7.3585542402        7.1444345886
O         0.0544795150        0.0814345831        2.0900524179
O         1.6705884482        1.9365919380        6.7368091325
O        -0.0708063379        1.9999517806        4.4122495697
O         1.7988001814        0.1474511112        9.2356441168
O         1.8092503739       -0.0179185538        5.2624498237
O        -0.1493846934        2.0059704882        0.4932573795
O         1.8664067107        2.1744410292        2.8342814788
O        -0.0715628139       -0.0498459558        7.6239046875
O        -0.0299436186        3.9098932462        2.0824737774
O         1.9938368462       13.2715159093        6.8220558669
O        11.2880731228        1.8280128780        4.3135881825
O         5.6328471614       -0.0203084456        9.2642889399
O         2.1100162176        3.7575362455        5.1804730444
O         0.0517927344       13.3739573658        0.4398826034
O         5.6319964595        1.8546415165        2.8381751013
O        11.2839653834        0.0666857128        7.5651061077
O         3.7111911059        0.1159875287        7.6924034909
O        13.1894911996        1.8736712926        2.8329341790
O        13.1743116905       -0.1039889353        9.2157638651
O         3.7104307606        1.6520677000        4.3755770093
O         1.9081222035        5.6226193034        6.7406262362
O         0.0572692004       11.4521131722        1.9143717395
O         0.0841543523        5.7166228868        0.4692692837
O         1.9136764939       11.3163963725        5.2376807262
O         0.1230483308        7.7256456156        1.9481546370
O         2.1557677751        9.4633369268        6.7778030450
O         7.4567121081        1.8646894953        4.3601229370
O         9.4164209364        0.0353332887        9.1989353079
O         1.8246723085        7.5680929822        5.2758712636
O         0.1106954846        9.5677433054        0.2709414938
O         9.3703129770        2.0397747677        2.8412281168
O         7.4824647874       -0.1598005022        7.7012435789
O         3.7487428626        0.0582328524        2.0365488802
O        13.2194549122        1.8488536899        6.7814398627
O         0.0040498303        5.6050037740        4.4871804567
O         1.9276950609       11.3550164499        9.2635520331
O        13.1735405881       -0.0295883228        5.1332415986
O         3.7068526154        1.9537027520        0.4347422781
O         1.9465382558        5.8006540345        2.9130593406
O         0.0990791883       11.4246865682        7.5700350711
O        11.3468679355        2.0064368553        0.2873351828
O         5.8151624434       -0.0875116946        5.2766972963
O         5.5676293310        1.8282695660        6.7830410327
O        11.2704146536        0.1393275049        1.8941687815
O         1.9074172757        3.8339778348        9.2029192878
O        -0.0206803977       13.1562504656        4.4545442391
O         0.0225079211        3.7993249195        7.6784870599
O         1.8865285397       13.2366620986        2.8678888517
O         3.9632737169        3.8390530801        2.0683321390
O        13.1076155467       13.2703069975        6.7312070752
O        11.3709328859        5.6620743892        4.3842704335
O         5.6891718583       11.4689303857        9.2253696269
O        13.1783001012        3.8038811552        5.2219844226
O         3.6408635479       13.3091681644        0.5094839327
O         5.7407356020        5.9095603446        2.7408567679
O        11.3033596220       11.3376679406        7.6548729183
O        11.2520055866       13.2693793304        0.4112018604
O         5.4983058609        3.7186329432        5.1859482882
O         3.7891100744       11.3697899764        7.6820670039
O        13.2788628526        5.9233684471        2.8736178775
O         5.5196714659       13.2002681171        6.7801888284
O        11.5394972318        3.8318457154        1.9187211569
O        13.2383615085       11.4079094200        9.2084858330
O         3.8634803420        5.7139286141        4.4045932950
O         5.7624958314        5.6332740470        6.7331600649
O        11.1248514234       11.4610341766        1.9990480359
O        13.2096896003        3.9075157030        9.1357829063
O         3.7968373600       13.2146725838        4.3885628673
O        11.3567654840        5.7367391873        0.4127897583
O         5.7893176966       11.3035455181        5.2379919620
O         3.7438400360        3.7237366976        7.6505199764
O        13.2129976424       13.2161169099        2.7173439232
O        13.0550485236       11.4100111743        5.1550978199
O         3.7137314378        5.6746245956        0.4299302140
O         5.6958552839       13.1691186001        2.8690067778
O        11.2942556633        3.5635550328        7.5585234652
O         3.9614157998       11.4072863591        1.9641422990
O        13.2149130543        5.6411315389        6.8960536927
O        11.2867104867       13.3467889380        4.3214420733
O         5.6647122812        3.8110180818        9.1406742051
O         3.7850316342        7.6377562151        1.9254883733
O        13.3099377600        9.5857386250        6.7513972237
O         7.5718892607        5.5288637197        4.3199842215
O         9.4250131581       11.3228746292        9.2239031533
O        13.2659710942        7.5876609731        5.4221831181
O         3.8095886353        9.5218390700        0.3616293425
O         9.5562178557        5.5811950255        2.7914026902
O         7.5210446229       11.3446453441        7.5744793968
O        11.3437882819        9.4920376077        0.4105905244
O         5.7324031597        7.5686300519        5.1636124155
O         5.5522581574        9.4182292137        6.7579810658
O        11.2269826006        7.6058333460        2.0184483001
O         9.4362385187        3.9467765021        9.1468886498
O         7.5905278182       13.0470549610        4.4515324921
O         7.5027571007        3.6476594933        7.5501663945
O         9.4301229568       13.4642720081        2.8563536003
O         7.4441125048       -0.0392325329        2.0350916288
O         9.2167738896        1.8084249802        6.7252036657
O         0.0789733836        9.3713316137        4.4383111761
O         1.9257741624        7.5807076255        9.2012011460
O         9.3139107351       -0.0322465040        5.1966230888
O         7.6315338030        1.9052094634        0.4411909717
O         1.9646487878        9.6952980742        2.7727758874
O         0.0421762802        7.5691665600        7.6180693793
O         7.5221459797        3.7963504027        1.9471653063
O         9.5041157253       13.2099876580        6.7408304666
O        11.4406619358        9.2306064311        4.3764076149
O         5.6682932760        7.6946928690        9.1237906217
O         9.4798638759        3.6881225122        5.1850453631
O         7.5675970846       13.2198470959        0.4209338325
O         5.7414280566        9.3993843377        2.7146382974
O        11.3020295463        7.6432217492        7.5977591131
O         3.7902179655        7.3669422062        7.6034863037
O        13.3242962585        9.6142101019        2.8091280238
O        13.2658428725        7.6763522970        9.3223015400
O         3.8511668105        9.4245128575        4.2952775214
O         9.6072072269        5.5298144903        6.7529840312
O         7.6422837182       11.3272072453        1.9573247820
O         7.3460196142        5.6962309669        0.3726275959
O         9.5571344397       11.2276279008        5.1993864334
O         7.8551866136        7.5908635361        1.9229998356
O         9.4504535262        9.4184700027        6.8084377035
O         7.5581127847        9.3771177407        4.3245466298
O         9.4717923545        7.4414275924        9.2173787730
O         9.3582521240        7.4821049836        5.2472174238
O         7.5179627696        9.4682861183        0.3647297545
O         9.5713444092        9.5081287259        2.8720869581
O         7.5961081494        7.5410562676        7.5892456213
     192
 i =        2, E =     -5779.4423875750
Ti        -0.0592027386        0.1167854905        0.0319805025
Ti         1.8566702454        1.9281307197        4.8813403812
Ti         0.0390246793        2.0102997863        2.4899123555
Ti         1.8452396814       -0.0651056932        7.1922256227
Ti        -0.0558951458        3.8283229261       -0.0328013976
Ti         1.9513680144       13.2065991666        4.8403035575
Ti        11.3010900789        1.9581461234        2.4324308834
Ti         5.6008894299       -0.0751619187        7.2141849157
Ti         1.9051612748        3.8052861636        7.2470870002
Ti         0.0083750950       13.3333350579        2.4601177287
Ti         5.6825432778        1.8515404264        4.8120398517
Ti        11.2910511562        0.0928128626       -0.0325144449
Ti         3.6605434146        0.0812962585        0.0344010188
Ti        13.1632769796        1.7930127609        4.7363784739
Ti        13.2643947432       -0.0403212677        7.1776991970
Ti         3.7645290524        1.8341771518        2.5059686488
Ti         1.9631491724        5.6571057759        4.8330812594
Ti         0.0019451122       11.5684156052       -0.0083080809
Ti        -0.0145050788        5.7091247862        2.4793009604
Ti         1.8815630306       11.3451287527        7.3299354269
Ti         0.0326756744        7.4849710979        0.0275591515
Ti         2.0241774151        9.5190837192        4.8646104975
Ti         7.5005542602        1.9549588562        2.3337151405
Ti         9.4819491210       -0.1103077783        7.2260470095
Ti         1.9381624756        7.5721009787        7.1760250739
Ti         0.1039355964        9.5519785881        2.4951990306
Ti         9.3513219140        1.8219609496        4.7915052269
Ti         7.4670246217       -0.0341378385       -0.0632218050
Ti         3.7397957762        3.7715672186        0.0040514786
Ti        13.2308884565       13.1181984034        4.7794233316
Ti        11.3596913889        5.7147326056        2.3857143113
Ti         5.6737855626       11.3195402917        7.1751428351
Ti        13.1642124374        3.7050157444        7.2303934717
Ti         3.7820154174       13.1941434906        2.4445041422
Ti         5.6989030524        5.6981688480        4.8337366558
Ti        11.2241652748       11.3867183988        0.0811585274
Ti        11.3052357089       13.3136834426        2.3466686068
Ti         5.6652429173        3.7251369851        7.1422943129
Ti         3.8652105747       11.3964911130        0.0206438534
Ti        13.2748634854        5.5933947426        4.8710728228
Ti         5.7714976662       13.2033340135        4.8062837374
Ti        11.2633299424        3.7984262794       -0.0437578147
Ti        13.1238276635       11.3537971310        7.2612391676
Ti         3.8040901263        5.6329459122        2.3944063610
Ti         3.7893873439        7.5814677452        0.0308759608
Ti        13.2823410566        9.4295876911        4.8422611337
Ti         7.4947300033        5.6837240876        2.4117241455
Ti         9.4115262148       11.1787366087        7.1700424093
Ti        13.2963305937        7.5275762949        7.1969047020
Ti         3.8596162218        9.4353985417        2.3519987210
Ti         9.5194934144        5.5725576457        4.7273660942
Ti         7.5647357473       11.3540477497        0.0409757147
Ti        11.3936163373        9.4540300685        2.4339232875
Ti         5.6645592345        7.5817112474        7.2240525136
Ti         5.7697796481        9.4195677919        4.7590923501
Ti        11.3307550187        7.5855900323       -0.0001946102
Ti         9.4361880964        3.6642783542        7.1746736003
Ti         7.5408459618       13.3234718925        2.3894092531
Ti         7.4746200187        3.7984467247       -0.0577118596
Ti         9.4969325157       13.2367317279        4.7888769939
Ti         7.6103544847        7.5344608043       -0.0624449823
Ti         9.5261016087        9.4212488630        4.7789580846
Ti         7.6133713662        9.4156995134        2.3307507481
Ti         9.5176938459        7.3899905855        7.1536814873
O         0.0556898173        0.0643369726        2.0252801440
O         1.7628099195        1.9173253549        6.7644614167
O        -0.0224005853        1.9760721826        4.3913220479
O         1.7969101056        0.1226790425        9.2083582779
O         1.8167789136       -0.0104192755        5.2691504368
O        -0.1132834706        2.0072761723        0.4542021732
O         1.8666991738        2.0839885094        2.8138079965
O        -0.0528541735       -0.0531522505        7.6424133039
O        -0.0609033156        3.8903611294        2.0695536362
O         1.9850164624       13.2455303213        6.8327802273
O        11.2948037052        1.8437160623        4.3390223209
O         5.6045285497        0.0189383029        9.2465485869
O         2.0585339461        3.7795724394        5.1966442271
O         0.0469015819       13.3748532444        0.4372702010
O         5.6339300006        1.9236445001        2.8231885193
O        11.3089967764        0.0747148697        7.5743253355
O         3.7020221870        0.0804574951        7.6696338909
O        13.1894089187        1.8982996427        2.8410552609
O        13.1856577970       -0.0221094982        9.1863492963
O         3.7221858937        1.6859527295        4.3943735856
O         1.8715842424        5.6368306236        6.7689144722
O         0.0248728882       11.4249587415        1.9095802601
O         0.0362611822        5.7073694746        0.4608073706
O         1.8927394747       11.3347588705        5.2444719222
O         0.1257145810        7.6990571665        1.9340172661
O         2.0523415945        9.4672126919        6.7920696463
O         7.4981167489        1.9139258571        4.3787642476
O         9.4178443079        0.0125527588        9.1702613283
O         1.8968958086        7.5657938880        5.2711046360
O         0.0829850713        9.5423872191        0.2675940454
O         9.3820828858        1.9781401686        2.8223694223
O         7.4776857997       -0.1302125481        7.6742575918
O         3.7349800044        0.0653886158        2.0304248653
O        13.2723315918        1.8661346298        6.7873493472
O         0.0114166069        5.5949300090        4.4618822318
O         1.8906664207       11.3544304267        9.2432874856
O        13.2288769435       -0.0039278015        5.1730594484
O         3.7139684487        1.9343194537        0.4452025087
O         1.9425540582        5.7465023956        2.8708540428
O         0.0499462211       11.4335773113        7.6011735101
O        11.3219222636        1.9831791347        0.3148875008
O         5.7849786176       -0.0575984931        5.2561290242
O         5.6323981364        1.8246844708        6.7773835596
O        11.2994663315        0.1286959885        1.9172481128
O         1.8860675218        3.8175169929        9.2338238540
O        -0.0117450759       13.2083807863        4.4100208356
O         0.0022888072        3.7786752830        7.6791565679
O         1.8805703245       13.2374303408        2.8655175254
O         3.8992319945        3.8497625852        2.0557827491
O        13.1570359013       13.2357022848        6.7819992384
O        11.3676543088        5.6643870655        4.4019776845
O         5.6960160562       11.4528894745        9.2249581795
O        13.1570238149        3.8058096441        5.2231787542
O         3.6518547482       13.2950604535        0.4784191731
O         5.7113305239        5.8712522192        2.7660997100
O        11.3204777047       11.3343455747        7.6169620235
O        11.2757160996       13.2729300313        0.3893436609
O         5.5888010217        3.7214425646        5.1897156536
O         3.7922113070       11.3756749203        7.6659023442
O        13.2879783085        5.8997559674        2.8678771472
O         5.5225731876       13.2040710706        6.8067352926
O        11.4728301371        3.8069357703        1.9605920703
O        13.2572047374       11.4307868561        9.1962859707
O         3.8557263648        5.7212073583        4.3989555848
O         5.7499008284        5.6321234347        6.7326202464
O        11.2212191362       11.4111265957        2.0054715808
O        13.2079064368        3.8882039527        9.1460718380
O         3.7820097480       13.2300200938        4.4139315166
O        11.4023911540        5.7429811070        0.4095148719
O         5.7403542147       11.2892948483        5.2503024812
O         3.7565368598        3.7255074446        7.6604059652
O        13.2312229108       13.2699726386        2.7797648902
O        13.0913871816       11.3481448004        5.1618785184
O         3.7414702584        5.6812204569        0.4270766230
O         5.6939125098       13.2325536441        2.8558229500
O        11.3031245154        3.5826528735        7.5809552594
O         3.9220378570       11.4008773219        1.9836188970
O        13.2232182814        5.6545914708        6.8333819377
O        11.3048623646       13.3044139395        4.3391438486
O         5.6586539284        3.7834243170        9.1581781412
O         3.7551383890        7.6123980635        1.9393314803
O        13.3082139758        9.5441806972        6.7813508488
O         7.5852658834        5.5218932830        4.3298436739
O         9.4334125179       11.3093432745        9.1721102966
O        13.3006038507        7.5758684946        5.3435278829
O         3.7974638145        9.5098269948        0.3828179417
O         9.5062214990        5.5798948083        2.7993794161
O         7.5195797862       11.3215284089        7.5661232981
O        11.3607394435        9.4844216494        0.4712186782
O         5.7449876616        7.5500172349        5.1814372210
O         5.6068405252        9.4037895156        6.7692687171
O        11.3017791645        7.6168827079        1.9991749820
O         9.4170012947        3.9259780705        9.1478201528
O         7.5731160725       13.0896356114        4.4052675928
O         7.5205273714        3.6951862603        7.5763121422
O         9.4262079063       13.3692642390        2.8243987683
O         7.4822224119        0.0014342981        2.0314078151
O         9.2836691327        1.8240284100        6.7583517077
O         0.0521051410        9.4394672773        4.4213256114
O         1.9047800727        7.6635881574        9.2121081435
O         9.3595212236       -0.0226630081        5.2050296385
O         7.5572358314        1.9140658116        0.4122462109
O         1.9351679107        9.6302246936        2.7695494817
O         0.0318634145        7.5838682661        7.6173640983
O         7.4806572612        3.8181450783        1.9455901502
O         9.4846103140       13.2178459344        6.7600857477
O        11.4114884809        9.2512617641        4.3997936512
O         5.6711972289        7.6446550501        9.1537997775
O         9.4556645392        3.7123330008        5.1969322618
O         7.5848018316       13.2528456891        0.4306146103
O         5.7303805783        9.4130413969        2.7548113173
O        11.3374189919        7.6224327813        7.6390383377
O         3.7825671173        7.4003129758        7.5984016176
O        13.2909968606        9.6001125926        2.8139517062
O        13.2666157154        7.6565507390        9.2225692340
O         3.8433725157        9.3940953661        4.3183285588
O         9.5395694047        5.5647515165        6.7633324719
O         7.6631898207       11.3291105951        1.9520676767
O         7.4193488110        5.6909098094        0.4058847411
O         9.5548256808       11.2535964539        5.2093678083
O         7.7894422872        7.5601128311        1.9417650756
O         9.4663683628        9.4113682956        6.8346024678
O         7.5802684576        9.3887247471        4.3419029819
O         9.4705021176        7.5004093150        9.1805344644
O         9.4054789107        7.4928323251        5.2340517519
O         7.5323628746        9.4549587696        0.3689273009
O         9.5273323303        9.5056141672        2.8666436319
O         7.5894550338        7.5152023771        7.5970541720
     192
 i =        3, E =     -5779.4803635187
Ti        -0.0478492965        0.1178438020        0.0172500891
Ti         1.8643355241        1.9203434230        4.8682900801
Ti         0.0354108934        2.0051599018        2.4719120157
Ti         1.8501573765       -0.0535728951        7.2013103158
Ti        -0.0651248366        3.8158770448       -0.0302969441
Ti         1.9486787503       13.2229448850        4.8285957279
Ti        11.3244016582        1.9443785835        2.4327123095
Ti         5.6053245634       -0.0510380454        7.2107504747
Ti         1.9011960075        3.7943887940        7.2466352001
Ti         0.0052240333       13.3341664282        2.4477851377
Ti         5.6878090455        1.8601611392        4.8123963671
Ti        11.2851719516        0.0816632681       -0.0270814570
Ti         3.6706932240        0.0802126495        0.0272302372
Ti        13.1812512597        1.8136071739        4.7680143372
Ti        13.2489257940       -0.0281489949        7.1977829574
Ti         3.7728595656        1.8424653217        2.4837191381
Ti         1.9585260529        5.6666381660        4.8266560986
Ti        -0.0101301823       11.5576714547       -0.0183644486
Ti        -0.0082637436        5.6992867064        2.4721724629
Ti         1.8670067041       11.3532722409        7.2954285631
Ti         0.0149979259        7.4931560531        0.0057824887
Ti         2.0040473859        9.5187105094        4.8479501900
Ti         7.5157457748        1.9470515873        2.3337240707
Ti         9.4697790824       -0.0916474028        7.2170068384
Ti         1.9259537407        7.5679413447        7.1775706534
Ti         0.0838179090        9.5319777769        2.4944799129
Ti         9.3664543929        1.8375813320        4.7873878725
Ti         7.4668933343       -0.0105639333       -0.0558670117
Ti         3.7452371828        3.7773749208        0.0131788464
Ti        13.2333614635       13.1425210097        4.7835394703
Ti        11.3626428363        5.7081968812        2.3927522380
Ti         5.6693971078       11.3188730924        7.1909619589
Ti        13.1765672349        3.7213293457        7.2187265387
Ti         3.7802813678       13.2187035997        2.4226886782
Ti         5.7001894804        5.6803565817        4.8406027860
Ti        11.2414759256       11.3883532433        0.0534477962
Ti        11.3233917879       13.2965559332        2.3684900023
Ti         5.6655485480        3.7318382858        7.1598644579
Ti         3.8440543130       11.3898930345        0.0192686915
Ti        13.2706212709        5.5971031065        4.8488151887
Ti         5.7462859089       13.2031800479        4.7987313397
Ti        11.2692704204        3.7963012731       -0.0204045433
Ti        13.1639072362       11.3307532529        7.2717076544
Ti         3.7951764816        5.6332830450        2.3921343931
Ti         3.7763002839        7.5943280892        0.0153715063
Ti        13.2797472289        9.4385923464        4.8402239154
Ti         7.5004254617        5.6903846512        2.4055175764
Ti         9.4186765052       11.2088734171        7.1645892180
Ti        13.2950616609        7.5228687442        7.1834133670
Ti         3.8394254056        9.4334589348        2.3773310600
Ti         9.5011666251        5.5847136291        4.7448993175
Ti         7.5710622841       11.3478953946        0.0246369745
Ti        11.4009964161        9.4558442074        2.4259091369
Ti         5.6718484910        7.5605025538        7.2359283393
Ti         5.7583021431        9.4140890264        4.7770421023
Ti        11.3520602701        7.5904368644       -0.0135108952
Ti         9.4327687216        3.6873504161        7.1841527150
Ti         7.5479944532       13.3294211790        2.3811851689
Ti         7.4820197371        3.8046815505       -0.0469813774
Ti         9.4887298760       13.2302341403        4.7889017911
Ti         7.6111653837        7.5370880664       -0.0599907617
Ti         9.5167992558        9.4291737667        4.7755261820
Ti         7.6079346412        9.4340853842        2.3515267480
Ti         9.5106815362        7.4311199031        7.1648400468
O         0.0442007353        0.0754324113        1.9964915447
O         1.8065082802        1.9140669883        6.7758229988
O         0.0052398762        1.9448433894        4.3940882980
O         1.8157864450        0.1224520492        9.2045677649
O         1.8090679568       -0.0132318113        5.2660990888
O        -0.1027379432        1.9923989625        0.4447686252
O         1.8700940485        2.0258622174        2.8012710655
O        -0.0393255859       -0.0610208940        7.6365513111
O        -0.0878485223        3.8757216144        2.0467914755
O         1.9586788452       13.2326059923        6.8311726670
O        11.2928470737        1.8527517677        4.3697621462
O         5.5913339740        0.0150174589        9.2308097682
O         2.0242119870        3.7852405742        5.2138519542
O         0.0363197037       13.3596187294        0.4285624577
O         5.6454058125        1.9572855026        2.8182595579
O        11.3057005565        0.0572261324        7.5816824316
O         3.7122283429        0.0346572266        7.6646863331
O        13.2033633335        1.8927400655        2.8522962095
O        13.1924961525        0.0443288534        9.1766777330
O         3.7487275539        1.7268599106        4.4015623135
O         1.8592760517        5.6499625858        6.7956470389
O        -0.0130285046       11.4073338437        1.9153457181