     192
 i =        1, E =     -5779.3487215009
Ti        -0.0040516467        0.0144019612       -0.0060972265
Ti        -0.0078770082       -0.0034122951       -0.0162319160
Ti        -0.0065818091        0.0017672262       -0.0148313831
Ti        -0.0066949456        0.0091966792        0.0132962485
Ti        -0.0050900617       -0.0066756445        0.0142463577
Ti         0.0030086008        0.0031812836        0.0032299250
Ti         0.0040683813        0.0033307404       -0.0262082496
Ti         0.0001459642        0.0070720132        0.0048845358
Ti        -0.0003502853       -0.0131846743       -0.0056200193
Ti        -0.0120723346       -0.0030264390        0.0002845585
Ti        -0.0144082541        0.0028284278        0.0002464009
Ti        -0.0045554521       -0.0074223756       -0.0011025140
Ti        -0.0002110198       -0.0053658571       -0.0055030804
Ti         0.0145165204        0.0052747523        0.0230789400
Ti        -0.0144594013        0.0082490655        0.0086484071
Ti         0.0030454582        0.0212528689       -0.0134173027
Ti        -0.0017106829        0.0065314341       -0.0187835339
Ti        -0.0017632486        0.0010400705       -0.0104490675
Ti         0.0070361894        0.0032043073        0.0051045230
Ti         0.0096873904        0.0069228453       -0.0170760847
Ti        -0.0089228919        0.0068765461       -0.0103207679
Ti        -0.0034506729       -0.0110480882       -0.0311327124
Ti        -0.0019745779       -0.0118296542       -0.0076024396
Ti        -0.0038047124        0.0083180419        0.0002694194
Ti        -0.0013629956       -0.0055401606        0.0101308600
Ti        -0.0000304469       -0.0064855694        0.0133732602
Ti        -0.0000619622        0.0015800732        0.0090889038
Ti         0.0143495581        0.0074993544        0.0282940634
Ti         0.0151519150        0.0005987501        0.0058119236
Ti        -0.0107958430        0.0202270818       -0.0079360663
Ti         0.0061568835       -0.0074465129        0.0017684476
Ti        -0.0015613726       -0.0034949099        0.0119044166
Ti         0.0047024352        0.0026140632       -0.0122891842
Ti         0.0055470780        0.0175566153        0.0007357090
Ti         0.0155333230       -0.0092300180       -0.0088329604
Ti         0.0009107311        0.0030876954       -0.0117513007
Ti         0.0008676217        0.0015978746       -0.0019111014
Ti        -0.0031559363        0.0006688020        0.0006467075
Ti        -0.0057223097       -0.0025871918       -0.0160088768
Ti        -0.0109548998        0.0097214727        0.0012393157
Ti        -0.0094282912       -0.0069582575       -0.0057062818
Ti         0.0038788000        0.0132531123        0.0105549396
Ti         0.0080957453        0.0021496358        0.0003673787
Ti         0.0045503032        0.0075049014        0.0060838092
Ti         0.0016658571        0.0101768332       -0.0180636387
Ti         0.0001744374        0.0073703573       -0.0020927446
Ti         0.0025280566        0.0062410764       -0.0025450626
Ti        -0.0073254836        0.0279267391        0.0046119727
Ti        -0.0071574127        0.0002564310        0.0200702805
Ti        -0.0117386540        0.0054424755        0.0004735742
Ti        -0.0033538384        0.0016677399        0.0105813436
Ti         0.0091855316       -0.0000423535       -0.0146413998
Ti         0.0101191919        0.0054395448       -0.0064122571
Ti         0.0061917080       -0.0082875167        0.0058064960
Ti        -0.0122195384        0.0049144586        0.0018003133
Ti         0.0025157258        0.0087074097       -0.0068986616
Ti        -0.0044634794       -0.0019849989       -0.0022506542
Ti         0.0100345337       -0.0074759051       -0.0032615416
Ti         0.0100527310       -0.0026563294        0.0039250991
Ti        -0.0071323162       -0.0083393920        0.0098316028
Ti         0.0014378254        0.0028684440       -0.0043520852
Ti         0.0002081533        0.0008334998        0.0066964226
Ti        -0.0014335540        0.0049180891        0.0042433416
Ti        -0.0109940265        0.0066279904        0.0061608906
O         0.0013739440        0.0019148144       -0.0080344375
O         0.0099283516       -0.0021976898        0.0157063383
O         0.0163355814       -0.0036362203        0.0037246126
O         0.0035680341       -0.0033303192       -0.0050858025
O         0.0009036903        0.0003363198       -0.0061962074
O         0.0058207329       -0.0019609414       -0.0047647162
O         0.0039506075       -0.0120172253       -0.0004382394
O         0.0167882271       -0.0008832956        0.0049444270
O        -0.0029337121       -0.0039891364       -0.0056756229
O        -0.0006663620       -0.0175628941        0.0020382795
O        -0.0131337013       -0.0005417077        0.0166680275
O        -0.0189612511        0.0046051829       -0.0034515641
O        -0.0056256687        0.0107973244        0.0063511822
O         0.0014494178       -0.0051790006        0.0018627338
O         0.0014398468        0.0060374429       -0.0026714885
O         0.0079702217        0.0007968461        0.0027121364
O         0.0008913632       -0.0038288104       -0.0050047607
O        -0.0011472972        0.0029650791       -0.0073625673
O         0.0080666135        0.0092710105       -0.0079345842
O         0.0061696832        0.0013792676        0.0168703520
O        -0.0041837048        0.0096777796        0.0175475869
O        -0.0013442003       -0.0086174731        0.0033072492
O        -0.0063180070       -0.0093044734       -0.0007266308
O        -0.0012691203        0.0151312615        0.0038351587
O        -0.0005467043       -0.0054285320        0.0004015781
O        -0.0090571394       -0.0017080797        0.0184719176
O         0.0177947843        0.0040526916        0.0047319911
O         0.0027581168       -0.0020297415       -0.0055741669
O         0.0085883598       -0.0004582615       -0.0057522803
O        -0.0030823108       -0.0044863816       -0.0018310794
O         0.0038933895       -0.0061729106       -0.0093495510
O        -0.0029316847        0.0028035780       -0.0224412136
O        -0.0004921184       -0.0122328684       -0.0010809781
O         0.0052868532        0.0034685707       -0.0042000257
O         0.0113512209       -0.0007841796       -0.0087857977
O        -0.0135145942        0.0005807151        0.0034013416
O         0.0055387650        0.0102180476        0.0058296100
O         0.0005414545       -0.0050199660        0.0065798312
O        -0.0075679084       -0.0061203430       -0.0079469229
O        -0.0246604066        0.0027253488        0.0108660713
O        -0.0030082259       -0.0151297719        0.0075628656
O        -0.0037054731        0.0146528691       -0.0042782024
O         0.0063604235       -0.0023129556        0.0005760646
O         0.0034858300       -0.0010032375        0.0052521497
O        -0.0137474918       -0.0009730715        0.0057333396
O         0.0075501488        0.0053485000       -0.0110669751
O        -0.0077721058       -0.0008015428       -0.0067137112
O         0.0037232641       -0.0010093596        0.0012213581
O        -0.0074565192       -0.0080361931       -0.0066335721
O         0.0050303068       -0.0181693997        0.0040157253
O         0.0046283962       -0.0006439003        0.0031614574
O         0.0016543136       -0.0008170470       -0.0043045201
O        -0.0033779608       -0.0133912157        0.0007665067
O         0.0010585183        0.0008517441       -0.0099277310
O        -0.0154812081       -0.0046648614        0.0041651547
O         0.0016236164       -0.0003149230       -0.0009006373
O         0.0029041981        0.0121195251       -0.0055363986
O         0.0092758862       -0.0031639845        0.0021610140
O         0.0118146454        0.0001718110        0.0002113581
O         0.0035688024       -0.0043610373        0.0013456896
O        -0.0018640689        0.0000623184        0.0065973844
O        -0.0085718722       -0.0066408924        0.0063432143
O         0.0076008186        0.0010049102       -0.0008679769
O        -0.0096056071       -0.0000109390       -0.0013426820
O        -0.0027370139        0.0056842743        0.0040180749
O         0.0117378356       -0.0196824651        0.0076390792
O         0.0009478737       -0.0008588612        0.0050280265
O        -0.0061847955        0.0013647955        0.0101877836
O         0.0050152272       -0.0041789133       -0.0014692753
O        -0.0079519897       -0.0049296130       -0.0030905816
O         0.0080796589       -0.0001182471       -0.0012583799
O         0.0054988407        0.0062476324        0.0132341209
O         0.0017214964       -0.0328871467        0.0037248654
O         0.0029817456       -0.0002049027        0.0016062583
O        -0.0027556713        0.0074920435       -0.0019633701
O         0.0060775493        0.0025134183        0.0027021222
O        -0.0026759613       -0.0131919394        0.0101072408
O         0.0005998942        0.0042266616       -0.0062463439
O         0.0213116236       -0.0040453126        0.0052369272
O        -0.0124326726       -0.0021074969        0.0028902732
O        -0.0023651979       -0.0110179665        0.0085481615
O        -0.0005779446       -0.0081356511        0.0095882062
O         0.0027042228       -0.0005865951        0.0034812572
O        -0.0065544077       -0.0015440999       -0.0095150306
O         0.0018774361       -0.0046657232       -0.0329961194
O         0.0003314313       -0.0037181221        0.0035271403
O        -0.0189686920       -0.0007487726       -0.0009988556
O         0.0068628648       -0.0021402359        0.0029973333
O         0.0038554144       -0.0029449359        0.0120429611
O        -0.0009940408       -0.0013450245        0.0054891096
O         0.0040131497        0.0009875186       -0.0027237625
O         0.0083712182        0.0021197272       -0.0069574341
O        -0.0118173302       -0.0024762141       -0.0029317140
O         0.0030594181        0.0047098172       -0.0085580575
O         0.0071787687        0.0041556111        0.0062367976
O        -0.0098048699       -0.0091040302       -0.0097415568
O         0.0037829245        0.0190923529       -0.0042344805
O         0.0081128802        0.0033629526        0.0077323461
O        -0.0011478091        0.0089275612       -0.0110545675
O        -0.0000175504        0.0093007039        0.0001596821
O         0.0052267229        0.0002536651       -0.0005940842
O        -0.0084694361       -0.0035683309       -0.0070747868
O        -0.0030215395       -0.0071515586        0.0029032876
O         0.0008382488        0.0012145573        0.0035344460
O        -0.0034201675        0.0096149190       -0.0018985891
O        -0.0028194241       -0.0062513121        0.0045736731
O        -0.0073117386        0.0029483639        0.0046896630
O        -0.0034975126       -0.0058842664        0.0078244066
O        -0.0023719284        0.0055024311        0.0012769002
O         0.0014829527        0.0128984308        0.0031786369
O         0.0042588203        0.0033565078        0.0054485264
O         0.0234412553       -0.0023923239        0.0111821690
O        -0.0021745781        0.0048655596       -0.0014498296
O        -0.0121519991       -0.0018580191        0.0002023688
O         0.0065183576       -0.0041935513       -0.0119937792
O        -0.0029104396       -0.0020676351        0.0081250464
O        -0.0070852053        0.0094353699        0.0002266370
O         0.0024056769        0.0003315915        0.0057361247
O         0.0073801396       -0.0016914386        0.0022331908
O        -0.0023970982        0.0070975504        0.0016218308
O        -0.0058345703       -0.0108122255        0.0035873082
O         0.0011377954       -0.0241573502       -0.0019571396
O         0.0231003733        0.0022084596        0.0014989150
O        -0.0079600303        0.0054299191       -0.0076507400
O         0.0040889146       -0.0036359499       -0.0064214074
O         0.0022739455       -0.0108773108        0.0020117104
O        -0.0214820038        0.0013637255       -0.0060514063
O        -0.0021649306       -0.0045993844        0.0040355270
     192
 i =        2, E =     -5779.4423875750
Ti        -0.0022758525        0.0041283173        0.0026030630
Ti         0.0013023068       -0.0040212963       -0.0047338696
Ti        -0.0035763123       -0.0019074016       -0.0114000283
Ti         0.0011632061        0.0171291297        0.0045778186
Ti         0.0025353990       -0.0039126891        0.0026758591
Ti        -0.0039186722        0.0061770474       -0.0049092248
Ti        -0.0004979881        0.0042357014       -0.0062176213
Ti         0.0001691696        0.0074634830        0.0063148273
Ti        -0.0052884703       -0.0086708157       -0.0027162194
Ti        -0.0009683582       -0.0017904802       -0.0033240486
Ti        -0.0077701255        0.0000290973        0.0024590563
Ti         0.0022135480        0.0011200904       -0.0039642879
Ti         0.0047479327       -0.0040532191       -0.0038836107
Ti         0.0031176115        0.0070420108        0.0152216227
Ti        -0.0103754898        0.0081706824        0.0025080762
Ti        -0.0026315051        0.0143488036       -0.0102463976
Ti         0.0002604314        0.0035933304       -0.0105261275
Ti        -0.0020160947        0.0053594428       -0.0053644876
Ti         0.0092345049        0.0050832442        0.0033628052
Ti         0.0010371493       -0.0032121286       -0.0115445056
Ti        -0.0028375866        0.0079266236       -0.0110242321
Ti        -0.0050376524       -0.0096912832       -0.0107271409
Ti         0.0041404149       -0.0014728101        0.0041864005
Ti        -0.0079739154        0.0087830412       -0.0011252149
Ti        -0.0059531288       -0.0022472754        0.0069065164
Ti        -0.0073470134       -0.0021936149        0.0035872102
Ti         0.0014607644        0.0059746931       -0.0023343794
Ti         0.0002741694        0.0094458869        0.0067869278
Ti         0.0061763615        0.0054163601        0.0063212508
Ti        -0.0011858972        0.0169401001       -0.0044550212
Ti         0.0016214697       -0.0002906787        0.0028045096
Ti        -0.0064038947       -0.0020320886        0.0057829229
Ti         0.0122081427       -0.0004887378       -0.0090004493
Ti        -0.0052573846        0.0111764337       -0.0053408943
Ti         0.0072868006       -0.0039414248       -0.0037970782
Ti         0.0152117544       -0.0066593589       -0.0099695445
Ti         0.0015769187        0.0003389080        0.0071054672
Ti        -0.0021022514        0.0004696438        0.0033283263
Ti        -0.0071405988        0.0059672739       -0.0068009320
Ti        -0.0034629254        0.0096221160       -0.0024040865
Ti        -0.0097817075        0.0006619114        0.0027114892
Ti         0.0049850123        0.0073911987        0.0054846603
Ti         0.0106355537       -0.0009005556        0.0037563591
Ti        -0.0034867850        0.0041856397        0.0026762664
Ti        -0.0020424709       -0.0041842742       -0.0113671143
Ti         0.0000990294       -0.0000103503       -0.0028015643
Ti         0.0116791077        0.0026858386       -0.0074824889
Ti         0.0014823612        0.0130754079       -0.0008077815
Ti        -0.0021265727        0.0064904995        0.0162791697
Ti        -0.0077743632        0.0042547947        0.0029562153
Ti        -0.0079833395        0.0044502398        0.0062946133
Ti        -0.0030551038       -0.0054296145       -0.0010264594
Ti         0.0078930216        0.0023659917       -0.0051141745
Ti         0.0056924177       -0.0085261586       -0.0019361000
Ti        -0.0035098472       -0.0032789655        0.0037987411
Ti         0.0066669212        0.0079531211       -0.0046505847
Ti        -0.0076713421        0.0008401608       -0.0027767541
Ti         0.0088267046       -0.0106029762        0.0000740971
Ti         0.0037414558        0.0056447846        0.0043950760
Ti        -0.0038892305       -0.0037426029        0.0047726368
Ti        -0.0024078592       -0.0021535618        0.0011404058
Ti        -0.0039396693       -0.0097760490        0.0003671872
Ti         0.0047903337        0.0028167295        0.0054983245
Ti        -0.0091100917        0.0068073987        0.0010704205
O        -0.0014051590        0.0116569863       -0.0009217651
O         0.0014115434        0.0010497859        0.0056638535
O         0.0026208529       -0.0036512712        0.0066779708
O         0.0075932023        0.0014932397        0.0009065730
O        -0.0014905380       -0.0035865477       -0.0048949225
O         0.0002346435       -0.0068772229        0.0040188569
O         0.0023615762       -0.0038138963       -0.0003407076
O         0.0075122932       -0.0013908249       -0.0015489521
O        -0.0018040441       -0.0050957973       -0.0038922255
O        -0.0026273308       -0.0125681085       -0.0005273382
O        -0.0061960288       -0.0006304323        0.0097421569
O        -0.0042941227       -0.0027786527       -0.0022411696
O        -0.0019297232        0.0010248368        0.0058309794
O        -0.0008949692       -0.0085295635       -0.0025407374
O         0.0057218085        0.0000360008       -0.0004735175
O         0.0012910067       -0.0030112213        0.0022350176
O         0.0036087811       -0.0048819295        0.0004590351
O         0.0046800141       -0.0020928314       -0.0048824278
O        -0.0012514256        0.0053170823       -0.0001367024
O         0.0074531083        0.0029297679        0.0082632115
O         0.0003748210        0.0054381388        0.0083017736
O        -0.0024477594       -0.0058456715        0.0063080401
O        -0.0014802866       -0.0044967997       -0.0001037332
O         0.0002007739        0.0074694579        0.0015386252
O        -0.0042782144       -0.0022902407        0.0058613057
O        -0.0034738996        0.0024174392        0.0071372948
O         0.0067396197       -0.0027709237        0.0000326010
O         0.0021118196       -0.0006367069       -0.0000258151
O         0.0006218545        0.0041495056       -0.0079707822
O        -0.0069619431       -0.0007126917       -0.0007171158
O         0.0029683388       -0.0023126307       -0.0077060268
O         0.0012445811        0.0005859409       -0.0062179101
O         0.0012968305       -0.0151721081       -0.0012853874
O         0.0000186189        0.0033657281       -0.0027769526
O         0.0090721692        0.0001719922       -0.0043793205
O         0.0002730779       -0.0006585488        0.0012790549
O         0.0015440660       -0.0026688401        0.0029010501
O        -0.0005216641        0.0012932635        0.0051156965
O        -0.0091768045       -0.0008944757       -0.0001697542
O        -0.0074202580        0.0001323795        0.0032048285
O        -0.0039580408       -0.0086239776        0.0079102086
O        -0.0034259485       -0.0028393377       -0.0036202365
O         0.0011768452        0.0055837411        0.0007331957
O        -0.0006372452       -0.0146660429        0.0020902408
O        -0.0043601984        0.0024834078       -0.0030093057
O        -0.0012714041       -0.0014134790        0.0009769605
O        -0.0024767712       -0.0009143021       -0.0063624672
O         0.0106825965       -0.0013713408        0.0017000482
O        -0.0040148273       -0.0153833072       -0.0048079036
O         0.0041362736       -0.0045987006       -0.0079198360
O         0.0028487200       -0.0007160993       -0.0051233185
O         0.0026264990       -0.0032542490       -0.0020576397
O         0.0017194549       -0.0160519840       -0.0006615742
O         0.0021108680       -0.0000200739       -0.0045576843
O        -0.0102154224       -0.0031609547        0.0037414354
O        -0.0049287213       -0.0002922611        0.0062073209
O         0.0024662535        0.0040458111        0.0042965798
O        -0.0016626180       -0.0001225079        0.0029061762
O         0.0052791437       -0.0048443058        0.0063170273
O        -0.0068151408       -0.0028567589       -0.0002363447
O         0.0027265531       -0.0028543485       -0.0032917544
O        -0.0047359601        0.0073569503       -0.0047210915
O        -0.0113072538       -0.0056339639        0.0041338365
O        -0.0078978923       -0.0038949271        0.0019012597
O        -0.0040568604        0.0033563483        0.0074068150
O         0.0049976954        0.0035843487       -0.0007184779
O        -0.0087897065        0.0021417725        0.0051205170
O         0.0026260524       -0.0001305350        0.0000251346
O        -0.0003968943       -0.0097981139        0.0030549430
O        -0.0038106519        0.0058839728       -0.0047682092
O         0.0046847975        0.0009506429       -0.0026775837
O        -0.0081883021       -0.0002279332        0.0040403443
O         0.0047448128       -0.0047801292        0.0018557299
O         0.0039711428        0.0034081474       -0.0030685723
O        -0.0062495582        0.0030921401        0.0000140071
O         0.0009737262        0.0034512955        0.0051681101
O        -0.0032056799       -0.0088626564        0.0065907195
O        -0.0002374286       -0.0026358226        0.0025943980
O         0.0092913747       -0.0022846467        0.0008181833
O        -0.0077933925       -0.0016513849       -0.0013274943
O         0.0026020063       -0.0008588570        0.0035456771
O        -0.0015829746       -0.0107865167        0.0036106562
O        -0.0043213116        0.0025213576        0.0064541129
O        -0.0041181409        0.0004656990        0.0004103047
O         0.0007808299       -0.0001510156       -0.0197605111
O         0.0020067164       -0.0010161508        0.0033162411
O         0.0039600898        0.0029447373       -0.0032472639
O         0.0107476191        0.0000426348        0.0044716154
O        -0.0006590244        0.0051651465       -0.0058584347
O         0.0004572198        0.0011005293        0.0051643093
O        -0.0004048263        0.0044872513        0.0007432039
O         0.0003409755       -0.0113843914        0.0023976471
O         0.0018466568       -0.0038029012        0.0022183009
O         0.0071259657        0.0042021208       -0.0003888888
O         0.0027945216        0.0022204281        0.0018407860
O         0.0028876838       -0.0017110542       -0.0060169792
O        -0.0005285702        0.0112611568       -0.0057208512
O         0.0037911291       -0.0003121910        0.0017811923
O         0.0078357069        0.0015342523       -0.0079237594
O         0.0009528414        0.0000211403       -0.0025237915
O         0.0007344132       -0.0059292432       -0.0026369743
O        -0.0005305492       -0.0063394580       -0.0042242706
O         0.0093034700       -0.0032498515        0.0063613549
O         0.0018014016       -0.0031290844        0.0001834639
O        -0.0004495939       -0.0033665840       -0.0006275251
O        -0.0029131090       -0.0076438717       -0.0017347537
O        -0.0028197137        0.0058615177        0.0044865113
O        -0.0037073886       -0.0001433086        0.0025075160
O         0.0037668046       -0.0008007329        0.0033272945
O        -0.0001222315       -0.0009119204       -0.0014982680
O         0.0002923167        0.0009648274       -0.0017257594
O         0.0135519767       -0.0050487844       -0.0036664077
O        -0.0001732988        0.0024359920        0.0045811842
O        -0.0035723852       -0.0023288245        0.0010967596
O         0.0028793926        0.0005171090        0.0007663900
O        -0.0062610571        0.0042948864        0.0067820400
O        -0.0008289122        0.0063292766        0.0015403724
O        -0.0039214519        0.0035551185       -0.0020712323
O         0.0032919486        0.0004586063       -0.0077541790
O        -0.0039028457        0.0102005591        0.0007970523
O        -0.0040226569        0.0030187239        0.0008402409
O        -0.0004734330       -0.0093411510       -0.0068211925
O         0.0108022166        0.0038462490        0.0016468787
O        -0.0009750300        0.0020813289        0.0012493215
O         0.0032752449        0.0002809797       -0.0031148301
O        -0.0000474152       -0.0010099131        0.0013314395
O        -0.0081138196       -0.0000439731       -0.0031022962
O         0.0000587103       -0.0002444163        0.0032838853
     192
 i =        3, E =     -5779.4803635187
Ti        -0.0022766297        0.0013533141        0.0024040979
Ti         0.0035497594       -0.0016950582       -0.0021595088
Ti        -0.0032505325       -0.0042030259       -0.0065237992
Ti         0.0005473074        0.0118082528        0.0007710900
Ti         0.0036183580        0.0013443282        0.0001405661
Ti        -0.0052930098        0.0041245123       -0.0036504308
Ti        -0.0036678642        0.0005417097       -0.0025162992
Ti         0.0002943691        0.0008198391        0.0035720380
Ti        -0.0042248276       -0.0029168784       -0.0015573809
Ti         0.0016607122       -0.0038737574       -0.0023870616
Ti        -0.0064774796       -0.0020139872       -0.0000539614
Ti         0.0018088380        0.0006444404       -0.0005002553
Ti         0.0059312961       -0.0056668408       -0.0036466490
Ti         0.0008539593        0.0066275293        0.0084991525
Ti        -0.0045462251        0.0012827917       -0.0018344239
Ti        -0.0015710825        0.0117666410       -0.0046156177
Ti        -0.0003250360        0.0014595010       -0.0042144541
Ti         0.0009089413        0.0051834262        0.0011900282
Ti         0.0084190928        0.0073359506       -0.0012401579
Ti         0.0028311235       -0.0050297786       -0.0057348669
Ti         0.0017340375        0.0001664644       -0.0063555554
Ti        -0.0044025209       -0.0076491754       -0.0031308736
Ti         0.0044958315        0.0019692016        0.0053149096
Ti        -0.0084254811        0.0068018244       -0.0024362654
Ti        -0.0042378459       -0.0012233320        0.0050568447
Ti        -0.0079533990        0.0000396322       -0.0011144347
Ti         0.0047188118        0.0030154813       -0.0012833224
Ti        -0.0010255389        0.0046275926        0.0009098409
Ti         0.0020896913        0.0069158275        0.0031056743
Ti         0.0026934392        0.0086603701        0.0048453321
Ti        -0.0011469656        0.0025568573        0.0026940052
Ti        -0.0050957612       -0.0002033524        0.0026938837
Ti         0.0081971676        0.0008171500       -0.0042543346
Ti        -0.0045027683        0.0037048472       -0.0026815130
Ti         0.0034509258       -0.0018265706       -0.0066245479
Ti         0.0147021621       -0.0060443964       -0.0061442154
Ti        -0.0001244880        0.0004521214        0.0025610376
Ti        -0.0034635942       -0.0000840460        0.0050897310
Ti        -0.0055916449        0.0041167952       -0.0039705204
Ti        -0.0024058446        0.0103578946       -0.0020682092
Ti        -0.0079419198        0.0022620681        0.0055404241
Ti         0.0033303959        0.0063372844        0.0006173194
Ti         0.0057787571        0.0020298636       -0.0049487202
Ti        -0.0011923977        0.0052881320        0.0015213824
Ti         0.0004896740       -0.0042802869       -0.0060240456
Ti        -0.0044149264       -0.0017496887       -0.0018661495
Ti         0.0082063121        0.0024866946       -0.0044879076
Ti         0.0028406932        0.0080796707       -0.0009072759
Ti        -0.0014599689        0.0074874170        0.0064149290
Ti        -0.0025732323        0.0030920379       -0.0004165695
Ti        -0.0039271756        0.0066499158        0.0039655115
Ti        -0.0054517146       -0.0047843228        0.0018903632
Ti         0.0025509185        0.0010749862       -0.0024182271
Ti         0.0020219720       -0.0034084310       -0.0013482786
Ti        -0.0004255873       -0.0028568691        0.0035876286
Ti         0.0027204565        0.0045351701       -0.0011164638
Ti        -0.0024122970        0.0011515194       -0.0012553090
Ti         0.0059322863       -0.0115259390        0.0000762139
Ti         0.0024486445        0.0048312173        0.0038936756
Ti        -0.0044381123       -0.0015407548        0.0031229085
Ti        -0.0036301213        0.0014169457        0.0041458752
Ti        -0.0021967585       -0.0097384532        0.0015069363
Ti         0.0037547158        0.0009511941        0.0018963977
Ti        -0.0046640375        0.0050811992       -0.0008373170
O        -0.0008993136        0.0031267543        0.0035110519
O         0.0027071486       -0.0027598959        0.0042593708
O        -0.0043457871        0.0008004396        0.0039132948
O         0.0019054600        0.0020681364        0.0014817428
O         0.0021531874        0.0000715467       -0.0029186007
O         0.0017027971       -0.0035863006        0.0029626028
O         0.0032160112       -0.0019140577        0.0035547038
O         0.0049164757        0.0005618514       -0.0006502065
O         0.0031421812       -0.0057013098       -0.0013182202
O        -0.0024875981       -0.0040081478       -0.0011912597
O         0.0015535448        0.0003570465        0.0027406741
O         0.0026678670       -0.0009952938       -0.0008916125
O        -0.0032051714       -0.0014424772        0.0022618423
O        -0.0023520741       -0.0022863043       -0.0032411026
O         0.0034091132       -0.0055929830        0.0007374213
O         0.0036325201       -0.0010885567        0.0018269545
O         0.0004463947        0.0009452594       -0.0007631284
O         0.0036729646       -0.0009829154       -0.0026717064
O        -0.0031080074        0.0017834563        0.0009227308
O         0.0041336553        0.0041467813        0.0031180346
O         0.0015575753        0.0012174254        0.0034410934
O         0.0037281029       -0.0022454422        0.0056331888