     192
 i =        1, E =     -5780.6994942917
Ti        -0.0006982285       -0.0007067409       -0.0000008996
Ti         1.8927116624        1.8927218453        4.8075080362
Ti        -0.0006694230        1.8927172502        2.4026348806
Ti         1.8927308113       -0.0006719623        7.2123775316
Ti        -0.0006496031        3.7811819037        0.0016958828
Ti         1.8927446852       13.2394799209        4.8063769242
Ti        11.3461284501        1.8927110021        2.4037184800
Ti         5.6738639246       -0.0006425288        7.2133652683
Ti         1.8926815295        3.7812150366        7.2106921144
Ti        -0.0006938115       13.2394818689        2.4037791556
Ti         5.6738788707        1.8926843965        4.8065240009
Ti        11.3460971234       -0.0006775459       -0.0010925845
Ti         3.7811880020       -0.0006431560       -0.0016944387
Ti        13.2394682941        1.8927365721        4.8086371580
Ti        13.2394937606       -0.0006965786        7.2112591616
Ti         3.7812168828        1.8926950961        2.4043314887
Ti         1.8926812638        5.6738815678        4.8084875245
Ti        -0.0006780024       11.3461058508        0.0010846265
Ti        -0.0006436605        5.6738630736        2.4016436399
Ti         1.8927212929       11.3461253893        7.2112955170
Ti        -0.0006372957        7.5650820883        0.0020933032
Ti         1.8927128671        9.4577031443        4.8080546836
Ti         7.5650862566        1.8926811362        2.4047301820
Ti         9.4577165880       -0.0006508591        7.2129350587
Ti         1.8926808246        7.5650816045        7.2103002035
Ti        -0.0006443410        9.4577115798        2.4020867500
Ti         9.4576952021        1.8927054819        4.8069657718
Ti         7.5650703171       -0.0006339094       -0.0020899672
Ti         3.7812108850        3.7812198928        0.0000011075
Ti        13.2394958338       13.2395022159        4.8075086500
Ti        11.3461719250        5.6738672089        2.4027435374
Ti         5.6738757249       11.3461565634        7.2122770662
Ti        13.2394401244        3.7812031578        7.2095684105
Ti         3.7811984611       13.2394401103        2.4054637688
Ti         5.6738781649        5.6738805248        4.8075118449
Ti        11.3461196339       11.3461252440       -0.0000001483
Ti        11.3461108220       13.2394642979        2.4048623348
Ti         5.6738664886        3.7812158578        7.2116883493
Ti         3.7812159874       11.3461626857       -0.0006040241
Ti        13.2394410131        5.6738700568        4.8096307452
Ti         5.6738843939       13.2394477351        4.8053999050
Ti        11.3461448747        3.7812113079        0.0005986538
Ti        13.2394655850       11.3460979506        7.2101657015
Ti         3.7812145089        5.6738683829        2.4033421636
Ti         3.7812178878        7.5650890324        0.0004057877
Ti        13.2394658204        9.4577196940        4.8091888622
Ti         7.5650863076        5.6738591509        2.4037360483
Ti         9.4576931564       11.3461415230        7.2118406970
Ti        13.2394402396        7.5650757446        7.2091705971
Ti         3.7812131747        9.4576805776        2.4037835372
Ti         9.4577024873        5.6738881714        4.8079498505
Ti         7.5650821950       11.3461734739       -0.0009965908
Ti        11.3461574891        9.4576957620        2.4031795827
Ti         5.6738623382        7.5650766754        7.2112749063
Ti         5.6738828872        9.4577095705        4.8070637814
Ti        11.3461633780        7.5650770854        0.0009915462
Ti         9.4576895816        3.7812062348        7.2112393666
Ti         7.5650778399       13.2394390599        2.4058524281
Ti         7.5650749723        3.7812104608       -0.0004050926
Ti         9.4577217532       13.2394693932        4.8058307166
Ti         7.5650816744        7.5650846327        0.0000030299
Ti         9.4577102812        9.4577113099        4.8075107735
Ti         7.5650751853        9.4576981720        2.4041767174
Ti         9.4576875004        7.5650748895        7.2108434457
O         0.0012889951        0.0026614549        1.9924248147
O         1.8844221060        1.8897755124        6.7981138379
O         0.0026378442        1.8842163676        4.3953573757
O         1.8897113710        0.0012868222        9.2026299894
O         1.8842090054        0.0026497802        5.2196638909
O         0.0012854141        1.8897059137        0.4123819682
O         1.8897667466        1.8844082192        2.8169108794
O         0.0026702179        0.0012973291        7.6225921767
O         0.0012764293        3.7816696506        1.9923706038
O         1.8842211794       13.2361118600        6.7990986232
O        11.3490509664        1.8843832866        4.3943256495
O         5.6727832026        0.0012725118        9.2039979726
O         1.8846292244        3.7816889315        5.2195759662
O         0.0013108175       13.2360818832        0.4113429335
O         5.6728080814        1.8847031976        2.8154299488
O        11.3491075098        0.0012754005        7.6236709533
O         3.7816674500        0.0012777344        7.6226523827
O        13.2361184175        1.8842250904        2.8159251964
O        13.2360762282        0.0013049986        9.2036909369
O         3.7816913839        1.8846314094        4.3954501563
O         1.8847330797        5.6727932485        6.7995883314
O         0.0012769020       11.3491058424        1.9913442016
O         0.0012905870        5.6727955802        0.4110205671
O         1.8843701770       11.3490621844        5.2206907930
O         0.0012732300        7.5661931677        1.9927203023
O         1.8846191752        9.4572222313        6.7991779712
O         7.5661920724        1.8847097536        4.3958192450
O         9.4572343518        0.0012740444        9.2036191168
O         1.8846943019        7.5661906227        5.2192083578
O         0.0012772312        9.4572286463        0.4114045063
O         9.4572151991        1.8846169845        2.8158415162
O         7.5662059493        0.0012764338        7.6223063355
O         3.7749927904        0.0026191938        1.9911193645
O        13.2372104711        1.8897129071        6.7988731867
O         0.0026065423        5.6705352379        4.3945744760
O         1.8897649736       11.3542734881        9.2018974078
O        13.2371512301        0.0026687456        5.2188322994
O         3.7751008158        1.8898301538        0.4135608810
O         1.8898415106        5.6705713917        2.8175726095
O         0.0026359345       11.3544865886        7.6233860144
O        11.3542906944        1.8897692764        0.4131212474
O         5.6705199928        0.0026099151        5.2204364091
O         5.6705752393        1.8898338606        6.7974405396
O        11.3544873961        0.0026369172        1.9916370503
O         1.8898226560        3.7750949327        9.2014621360
O         0.0026711287       13.2371471660        4.3961964889
O         0.0026099151        3.7749803524        7.6239005232
O         1.8897122232       13.2372267676        2.8161401440
O         3.7752003707        3.7817023323        1.9914164145
O        13.2371787664       13.2360867197        6.7999181779
O        11.3489851162        5.6705420910        4.3936542868
O         5.6728023412       11.3539652723        9.2033584905
O        13.2372126808        3.7816738941        5.2188964496
O         3.7749847882       13.2361454565        0.4126491692
O         5.6728046124        5.6705736591        2.8158201793
O        11.3490598873       11.3543185280        7.6244196039
O        11.3544824631       13.2361082146        0.4121368689
O         5.6705522067        3.7817117239        5.2200610775
O         3.7816919954       11.3540677647        7.6233088411
O        13.2361501586        5.6705530688        2.8166991578
O         5.6705537584       13.2361562025        6.7983285974
O        11.3540570149        3.7816778765        1.9917118679
O        13.2361138224       11.3544793119        9.2028873559
O         3.7817014364        5.6705619308        4.3949765304
O         5.6705751778        5.6728123730        6.7992060245
O        11.3542885834       11.3490604068        1.9906006513
O        13.2361438347        3.7750046620        9.2023800630
O         3.7816767733       13.2371849705        4.3961294336
O        11.3539851160        5.6727947222        0.4116667694
O         5.6705336232       11.3489963193        5.2213681014
O         3.7817089158        3.7751892496        7.6236065890
O        13.2360873430       13.2371883570        2.8150890676
O        13.2371851658       11.3491113199        5.2199149203
O         3.7752387264        5.6728054297        0.4118893422
O         5.6727918404       13.2372513844        2.8147871975
O        11.3490037858        3.7750763130        7.6248537431
O         3.7750754282       11.3489985645        1.9901671520
O        13.2372376824        5.6727934944        6.8002379413
O        11.3491096257       13.2371777751        4.3951100506
O         5.6728084376        3.7752366108        9.2031327827
O         3.7752257909        7.5661748084        1.9918450589
O        13.2372437416        9.4572286890        6.7998542565
O         7.5661975406        5.6705550169        4.3954345450
O         9.4572160922       11.3540617375        9.2029506873
O        13.2372209156        7.5661988209        5.2185550286
O         3.7751825804        9.4572112456        0.4123765681
O         9.4572077627        5.6705806384        2.8163292578
O         7.5661846375       11.3539939434        7.6229417389
O        11.3540743690        9.4572232312        0.4120745368
O         5.6705463863        7.5661853960        5.2195792245
O         5.6705801876        9.4571936192        6.7986887702
O        11.3539746171        7.5661924900        1.9920815482
O         9.4571934186        3.7751891567        9.2026479264
O         7.5662051781       13.2371960775        4.3964697399
O         7.5661756437        3.7752262878        7.6231640302
O         9.4572312906       13.2372473958        2.8151657010
O         7.5686888247        0.0026029573        1.9908329338
O         9.4638543913        1.8898232036        6.7977176202
O         0.0026340389        9.4639543601        4.3948862354
O         1.8898483522        7.5686547910        9.2012106057
O         9.4639476747        0.0026265180        5.2201360666
O         7.5686645850        1.8898393811        0.4138179382
O         1.8898199682        9.4638682377        2.8173069521
O         0.0026094802        7.5686867265        7.6241804831
O         7.5686382809        3.7817058125        1.9912215309
O         9.4639629993       13.2361320759        6.7986232675
O        11.3490127410        9.4638475786        4.3939292822
O         5.6728044682        7.5686562972        9.2029697418
O         9.4637436748        3.7817090969        5.2198521435
O         7.5686713632       13.2361585138        0.4129198740
O         5.6727951630        9.4636969798        2.8156438489
O        11.3489785980        7.5686656551        7.6251001234
O         3.7817010432        7.5686454375        7.6237977858
O        13.2361492177        9.4639671524        2.8163954205
O        13.2361464255        7.5686753861        9.2020925093
O         3.7817124659        9.4637390481        4.3951702890
O         9.4637016091        5.6727961472        6.7993737869
O         7.5686689234       11.3489867253        1.9899137297
O         7.5686517287        5.6728084429        0.4120475202
O         9.4638413211       11.3490045419        5.2210947010
O         7.5686471570        7.5661807813        1.9917029433
O         9.4637552258        9.4572013468        6.7989025338
O         7.5661783798        9.4636802499        4.3956001572
O         9.4572046791        7.5686537747        9.2024612914
O         9.4636703877        7.5662010858        5.2194192089
O         7.5686512158        9.4571985608        0.4125642377
O         9.4572027142        9.4637399957        2.8161213880
O         7.5661843589        7.5686444278        7.6233253096
     192
 i =        2, E =     -5780.7000448977
Ti         0.0005814179        0.0005685548        0.0000025737
Ti         1.8904505376        1.8904612743        4.8075082365
Ti         0.0005763301        1.8903695798        2.4016308413
Ti         1.8903824092        0.0005771639        7.2133856732
Ti         0.0005804902        3.7785677704        0.0027925881
Ti         1.8903965776       13.2380506217        4.8053633768
Ti        11.3483039435        1.8904444376        2.4036899500
Ti         5.6728467644        0.0005772732        7.2153366550
Ti         1.8905353030        3.7786259364        7.2105794316
Ti         0.0005828401       13.2380250178        2.4037860404
Ti         5.6728774988        1.8905758277        4.8055695252
Ti        11.3483592530        0.0005656362       -0.0020723937
Ti         3.7785756984        0.0005883714       -0.0027889345
Ti        13.2380473098        1.8903932771        4.8096554921
Ti        13.2380360073        0.0005799770        7.2112437502
Ti         3.7786312147        1.8905447427        2.4044373208
Ti         1.8905752174        5.6728857531        4.8094465840
Ti         0.0005681046       11.3483627820        0.0020624315
Ti         0.0005769130        5.6728477438        2.3996707531
Ti         1.8904520827       11.3483035841        7.2113200974
Ti         0.0005810042        7.5662356048        0.0040482127
Ti         1.8905527597        9.4603224908        4.8081170590
Ti         7.5662281459        1.8905719209        2.4056653380
Ti         9.4603547328        0.0005859063        7.2139883814
Ti         1.8905711082        7.5662216609        7.2093618425
Ti         0.0005913491        9.4603531158        2.4010379635
Ti         9.4603179677        1.8905531140        4.8069030813
Ti         7.5662256843        0.0005813554       -0.0040414374
Ti         3.7786768162        3.7786876381        0.0000021310
Ti        13.2380446754       13.2380501572        4.8075187421
Ti        11.3481976161        5.6728678539        2.4017514024
Ti         5.6728747213       11.3481826481        7.2132706603
Ti        13.2380362445        3.7785872456        7.2084598262
Ti         3.7785880938       13.2380370485        2.4065714415
Ti         5.6729174269        5.6729226722        4.8075101734
Ti        11.3482993451       11.3483070618        0.0000025974
Ti        11.3483744070       13.2380405304        2.4058477362
Ti         5.6728929827        3.7786905410        7.2124514357
Ti         3.7786197484       11.3482206643       -0.0007381126
Ti        13.2380573506        5.6728566803        4.8116145571
Ti         5.6728678201       13.2380548654        4.8034149433
Ti        11.3482053805        3.7786144729        0.0007399105
Ti        13.2380432761       11.3483605290        7.2091751699
Ti         3.7786889686        5.6728989388        2.4025737242
Ti         3.7786881704        7.5661917650        0.0011551628
Ti        13.2380566080        9.4603627871        4.8102523266
Ti         7.5661854665        5.6729021855        2.4037193447
Ti         9.4603150301       11.3482143833        7.2119268724
Ti        13.2380535007        7.5662348593        7.2072024635
Ti         3.7786852390        9.4602475574        2.4038220217
Ti         9.4602579626        5.6729174274        4.8087606874
Ti         7.5662219270       11.3481968716       -0.0019699347
Ti        11.3482237071        9.4603112080        2.4030854206
Ti         5.6729045655        7.5661765490        7.2112921994
Ti         5.6729131363        9.4602596877        4.8062472540
Ti        11.3481863634        7.5662180610        0.0019640393
Ti         9.4602452306        3.7786761201        7.2111916196
Ti         7.5662405336       13.2380527993        2.4078189690
Ti         7.5661812351        3.7786852610       -0.0011536333
Ti         9.4603666396       13.2380619658        4.8047698453
Ti         7.5661758819        7.5661824804        0.0000034328
Ti         9.4602736729        9.4602700517        4.8075095233
Ti         7.5661912608        9.4602487580        2.4049717503
Ti         9.4602418908        7.5661901588        7.2100472203
O         0.0010703460        0.0017476380        1.9919365330
O         1.8840842912        1.8890451615        6.7968943952
O         0.0017909931        1.8840052418        4.3949371518
O         1.8889877867        0.0011134482        9.2013809713
O         1.8840081784        0.0017962302        5.2200863496
O         0.0011114417        1.8889821120        0.4136351939
O         1.8890359949        1.8840807727        2.8181299761
O         0.0017487699        0.0010720784        7.6230855374
O         0.0011301790        3.7787365053        1.9924533924
O         1.8840207571       13.2367960748        6.7986675491
O        11.3496779109        1.8840771424        4.3930781553
O         5.6715755367        0.0011574719        9.2045166851
O         1.8840601435        3.7788076533        5.2194617385
O         0.0010788098       13.2368297214        0.4118400833
O         5.6716152550        1.8841023695        2.8149010863
O        11.3497227768        0.0011071645        7.6249513582
O         3.7787314746        0.0011317119        7.6225667125
O        13.2367962946        1.8840178043        2.8163600039
O        13.2368294338        0.0010737994        9.2031779524
O         3.7788112312        1.8840688732        4.3955540484
O         1.8841093083        5.6715938980        6.8001246193
O         0.0011068053       11.3497261143        1.9900654167
O         0.0011600047        5.6715892297        0.4105032760
O         1.8840789918       11.3496804044        5.2219367750
O         0.0011528078        7.5675360412        1.9932142459
O         1.8840750069        9.4601304245        6.7992446536
O         7.5675228674        1.8841042099        4.3963281512
O         9.4602010896        0.0011303858        9.2036598682
O         1.8840979532        7.5675212398        5.2186992962
O         0.0011320560        9.4601845906        0.4113664510
O         9.4601177351        1.8840677216        2.8157765394
O         7.5675487628        0.0011553391        7.6218140069
O         3.7679701687        0.0018693858        1.9908566923
O        13.2373138024        1.8889827424        6.7976158129
O         0.0019000068        5.6653577798        4.3938563034
O         1.8890314721       11.3544152760        9.2006782349
O        13.2373390988        0.0017504499        5.2193253730
O         3.7681925189        1.8891540392        0.4145996117
O         1.8891891644        5.6654570101        2.8190093721
O         0.0017840947       11.3544845007        7.6238053997
O        11.3544188567        1.8890342010        0.4143341595
O         5.6653365647        0.0018951181        5.2211519812
O         5.6654683741        1.8891765400        6.7960071647
O        11.3544796004        0.0017888769        1.9912183881
O         1.8891456616        3.7681892583        9.2004191465
O         0.0017507587       13.2373389938        4.3956888247
O         0.0018629983        3.7679615395        7.6241621689
O         1.8889855865       13.2373248043        2.8174029061
O         3.7683639173        3.7789275504        1.9917744941
O        13.2373497684       13.2368396481        6.7994127344
O        11.3495409754        5.6654091394        4.3921829012
O         5.6716008158       11.3544028678        9.2039050646
O        13.2372811381        3.7787417073        5.2188157979
O         3.7679701668       13.2367256290        0.4129226766
O         5.6716469783        5.6654623869        2.8151802437
O        11.3496890459       11.3544204379        7.6256609635
O        11.3544740156       13.2367900732        0.4125619369
O         5.6654160906        3.7789849208        5.2199156630
O         3.7788063178       11.3544461244        7.6231930974
O        13.2366966544        5.6653955614        2.8174274926
O         5.6654020087       13.2367086734        6.7975940322
O        11.3544366023        3.7787934028        1.9918332990
O        13.2367979798       11.3544715425        9.2024572397
O         3.7789714117        5.6654333225        4.3951128365
O         5.6654683537        5.6716611513        6.7998468281
O        11.3544131322       11.3496861920        1.9893661352
O        13.2367291373        3.7679851555        9.2021004909
O         3.7787341277       13.2372759318        4.3962064666
O        11.3544107283        5.6715925814        0.4111203266
O         5.6653926002       11.3495426816        5.2228428936
O         3.7789406982        3.7683542982        7.6232556084
O        13.2368360671       13.2373498098        2.8156081733
O        13.2373045570       11.3497257457        5.2212011619
O         3.7684848714        5.6716359652        0.4111203058
O         5.6715887935       13.2372790897        2.8142703911
O        11.3495787908        3.7681704415        7.6259288338
O         3.7681725351       11.3495828815        1.9890980524
O        13.2372720821        5.6715851844        6.8007552993
O        11.3497285762       13.2373005719        4.3938186856
O         5.6716470514        3.7684814554        9.2038998685
O         3.7684660459        7.5674748174        1.9925917155
O        13.2372971293        9.4601957830        6.7998913278
O         7.5674850132        5.6654223310        4.3960476243
O         9.4601235005       11.3544374417        9.2030195157
O        13.2372639581        7.5675392003        5.2180634218
O         3.7683484469        9.4599999054        0.4120664003
O         9.4599579856        5.6654653221        2.8162415470
O         7.5675157738       11.3544162437        7.6224205073
O        11.3544491933        9.4601351872        0.4120000607
O         5.6654091472        7.5674664291        5.2189694344
O         5.6654696695        9.4599471941        6.7987732967
O        11.3544118750        7.5675247659        1.9925984620
O         9.4599885434        3.7683525454        9.2029509839
O         7.5675441144       13.2372562638        4.3969621223
O         7.5674656624        3.7684665324        7.6224206263
O         9.4601973930       13.2373046655        2.8151343012
O         7.5743156758        0.0018933393        1.9901276131
O         9.4705234182        1.8891491482        6.7966885194
O         0.0018682834        9.4707273644        4.3946365414
O         1.8891905739        7.5742274264        9.1997862406
O         9.4707225451        0.0018647178        5.2203856054
O         7.5742414190        1.8891826648        0.4152338238
O         1.8891468092        9.4705279159        2.8183359602
O         0.0019004673        7.5743117518        7.6248873125
O         7.5742029397        3.7789827892        1.9913721980
O         9.4707376608       13.2367296135        6.7983607848
O        11.3495825067        9.4705163470        4.3928671141
O         5.6716431899        7.5742245528        9.2036129079
O         9.4703421385        3.7789246267        5.2194901724
O         7.5742862040       13.2366991424        0.4136398616
O         5.6716323194        9.4702297697        2.8148671341
O        11.3495358977        7.5742412642        7.6265632684
O         3.7789754745        7.5742188415        7.6236461777
O        13.2367387594        9.4707429786        2.8166567886
O        13.2366920046        7.5742926429        9.2013682965
O         3.7789252837        9.4703380929        4.3955276943
O         9.4702327540        5.6716354874        6.8001460029
O         7.5742458641       11.3495426666        1.9884526199
O         7.5742166947        5.6716537198        0.4114071307
O         9.4705108260       11.3495680415        5.2221514141
O         7.5742030010        7.5674683885        1.9923119546
O         9.4703617221        9.4600131507        6.7992150695
O         7.5674659580        9.4702218521        4.3963464146
O         9.4599536027        7.5742269091        9.2025521217
O         9.4702083894        7.5674935526        5.2186727470
O         7.5742231356        9.4599449080        0.4124743464
O         9.4600069167        9.4703550596        2.8158127705
O         7.5674768434        7.5742017346        7.6227139106
     192
 i =        3, E =     -5780.7003562948
Ti         0.0006847651        0.0006744170        0.0000010455
Ti         1.8888418062        1.8888510887        4.8075060947
Ti         0.0007094327        1.8887758532        2.4020779666
Ti         1.8887904807        0.0007077437        7.2129414276
Ti         0.0007472581        3.7756670747        0.0028844570
Ti         1.8888043982       13.2378331201        4.8058080485
Ti        11.3498382188        1.8888354295        2.4036952559
Ti         5.6712051178        0.0007693957        7.2159689463
Ti         1.8889177604        3.7757348378        7.2100038611
Ti         0.0006862681       13.2378378701        2.4037867403
Ti         5.6712341488        1.8889870461        4.8044473953
Ti        11.3498758704        0.0006979549       -0.0016305946
Ti         3.7756742488        0.0007547343       -0.0028813015
Ti        13.2378306378        1.8887991474        4.8092098497
Ti        13.2378512700        0.0006852351        7.2112442869
Ti         3.7757419301        1.8889264070        2.4050133632
Ti         1.8889865152        5.6712426759        4.8105681439
Ti         0.0006998860       11.3498820449        0.0016182733
Ti         0.0007704895        5.6712053571        2.3990403669
Ti         1.8888441878       11.3498360573        7.2113199149
Ti         0.0007746774        7.5680174215        0.0046443487
Ti         1.8889349023        9.4631914049        4.8086615410
Ti         7.5680088151        1.8889820741        2.4067515130
Ti         9.4632340799        0.0007477400        7.2140507208
Ti         1.8889809967        7.5680011216        7.2082742637
Ti         0.0007501293        9.4632335730        2.4009768633
Ti         9.4631879311        1.8889380022        4.8063572536
Ti         7.5680087526        0.0007749392       -0.0046376760
Ti         3.7758318533        3.7758402240       -0.0000001469
Ti        13.2378606106       13.2378642120        4.8075191130
Ti        11.3497117767        5.6712293927        2.4006329659
Ti         5.6712341121       11.3496962585        7.2143873093
Ti        13.2377816783        3.7756839426        7.2083683605
Ti         3.7756863919       13.2377827746        2.4066621940
Ti         5.6712870721        5.6712919600        4.8075086639
Ti        11.3498323432       11.3498382606        0.0000014175
Ti        11.3498898249       13.2378252201        2.4054066932
Ti         5.6712502544        3.7758729028        7.2129550495
Ti         3.7757269339       11.3497631082       -0.0013087498
Ti        13.2377788744        5.6712121442        4.8122427585
Ti         5.6712207447       13.2377771943        4.8027831045
Ti        11.3497476094        3.7757233313        0.0013092911
Ti        13.2378272271       11.3498765804        7.2096192536
Ti         3.7758706972        5.6712558824        2.4020677330
Ti         3.7758708407        7.5679730263        0.0016317730
Ti        13.2378035994        9.4632439773        4.8103132216
Ti         7.5679508430        5.6712782984        2.4036935303
Ti         9.4631830225       11.3497535519        7.2124662457
Ti        13.2377738152        7.5680191790        7.2066075590
Ti         3.7758372079        9.4630719928        2.4038529258
Ti         9.4630492342        5.6712701387        4.8093033481
Ti         7.5679992650       11.3497124757       -0.0030527719
Ti        11.3497609074        9.4631792853        2.4025442615
Ti         5.6712786866        7.5679429487        7.2113202123
Ti         5.6712670692        9.4630515134        4.8057074031
Ti        11.3497034193        7.5679957646        0.0030461302
Ti         9.4630661980        3.7758315190        7.2111589943
Ti         7.5680253162       13.2377740446        2.4084163467
Ti         7.5679636061        3.7758708683       -0.0016320174
Ti         9.4632457248       13.2378142541        4.8047072836
Ti         7.5679410218        7.5679480975        0.0000029694
Ti         9.4630953241        9.4630959026        4.8075075481
Ti         7.5679762204        9.4630397657        2.4054839259
Ti         9.4630352638        7.5679738420        7.2095348343
O         0.0014020717        0.0016632964        1.9913334507
O         1.8845826454        1.8876158643        6.7969702560
O         0.0016758947        1.8844792286        4.3956492447
O         1.8875536526        0.0014545072        9.2001984463
O         1.8844807709        0.0016774135        5.2193763675
O         0.0014531133        1.8875523604        0.4148232845
O         1.8876120988        1.8845846563        2.8180491504
O         0.0016647040        0.0014006121        7.6236856255
O         0.0014426178        3.7766523386        1.9909136585
O         1.8844782962       13.2368374258        6.7994049795
O        11.3510404051        1.8845851214        4.3932248939
O         5.6708707410        0.0014221747        9.2040867750
O         1.8845620224        3.7766953768        5.2196879044
O         0.0013991966       13.2368455310        0.4124152236
O         5.6709081352        1.8845400464        2.8140357185
O        11.3510976889        0.0014542632        7.6260702583
O         3.7766508744        0.0014445433        7.6241015356
O        13.2368380675        1.8844771607        2.8156171995
O        13.2368443992        0.0013975361        9.2026004161
O         3.7767004694        1.8845661443        4.3953263010
O         1.8845367555        5.6708883286        6.8009881265
O         0.0014568725       11.3511002560        1.9889460505