     192
 i =        1, E =     -5780.6994942917
Ti         0.0006655011        0.0006644806        0.0000005623
Ti        -0.0007420608       -0.0007400418        0.0000011073
Ti         0.0006662874       -0.0007649698       -0.0005906454
Ti        -0.0007652480        0.0006675525        0.0005923217
Ti         0.0006699616       -0.0012193175        0.0002832464
Ti        -0.0007658963       -0.0007129727       -0.0005914755
Ti         0.0007267236       -0.0007453587        0.0000012284
Ti        -0.0002537489        0.0006739618        0.0004103546
Ti        -0.0007156220       -0.0012082553        0.0002998927
Ti         0.0006652118       -0.0007105004        0.0000009500
Ti        -0.0002598797       -0.0006969897        0.0001815742
Ti         0.0007478127        0.0006655004       -0.0005889574
Ti        -0.0012210950        0.0006710146       -0.0002806933
Ti        -0.0007110890       -0.0007649835        0.0005943999
Ti        -0.0007096542        0.0006647713       -0.0000041314
Ti        -0.0012082789       -0.0007194969       -0.0003010764
Ti        -0.0006990467       -0.0002578061       -0.0001785359
Ti         0.0006670087        0.0007479917        0.0005898017
Ti         0.0006742842       -0.0002541840       -0.0004082913
Ti        -0.0007479917        0.0007256658        0.0000001679
Ti         0.0006735917        0.0002990044        0.0004094508
Ti        -0.0007211115        0.0012231297       -0.0003032653
Ti         0.0003030186       -0.0007025157       -0.0001807733
Ti         0.0012314993        0.0006678067        0.0002793899
Ti        -0.0007010709        0.0003018506        0.0001784643
Ti         0.0006696028        0.0012326208       -0.0002775055
Ti         0.0012244291       -0.0007155232        0.0003045184
Ti         0.0003006099        0.0006728456       -0.0004100949
Ti        -0.0011918459       -0.0011909743       -0.0000013638
Ti        -0.0007067526       -0.0007079574        0.0000032692
Ti         0.0006810800       -0.0002559029        0.0001787916
Ti        -0.0002575866        0.0006816943       -0.0001788300
Ti        -0.0007116481       -0.0012245821       -0.0002862758
Ti        -0.0012212601       -0.0007129999        0.0002839440
Ti        -0.0002588881       -0.0002588547       -0.0000012514
Ti         0.0007280697        0.0007271627        0.0000004019
Ti         0.0007473689       -0.0007105252        0.0005919420
Ti        -0.0002604545       -0.0011813078        0.0001101430
Ti        -0.0012116839        0.0006978346        0.0003026711
Ti        -0.0007125994       -0.0002527531        0.0004091503
Ti        -0.0002545970       -0.0007141219       -0.0004104981
Ti         0.0006992911       -0.0012103263       -0.0002990145
Ti        -0.0007093651        0.0007496554       -0.0005951058
Ti        -0.0011800000       -0.0002599526       -0.0001117035
Ti        -0.0011813714        0.0003035534        0.0001127050
Ti        -0.0007115531        0.0012349376        0.0002806540
Ti         0.0003047838       -0.0002555425        0.0000026897
Ti         0.0012224336        0.0007009555       -0.0003072133
Ti        -0.0007145606        0.0003022533       -0.0004135108
Ti        -0.0011909441        0.0012055364        0.0000010138
Ti         0.0011909293       -0.0002577647        0.0001171670
Ti         0.0003022317        0.0006819509        0.0001776237
Ti         0.0006982943        0.0012194106        0.0003052806
Ti        -0.0002582863        0.0003043413       -0.0000012890
Ti        -0.0002547826        0.0011896238       -0.0001158281
Ti         0.0006813701        0.0003040315       -0.0001755015
Ti         0.0012010681       -0.0011893842       -0.0000054810
Ti         0.0003025707       -0.0007128577        0.0004124951
Ti         0.0003034687       -0.0011798910       -0.0001142964
Ti         0.0012345939       -0.0007139809       -0.0002794171
Ti         0.0003033710        0.0003038561        0.0000010787
Ti         0.0012036312        0.0012031918       -0.0000021186
Ti         0.0003078929        0.0011870735        0.0001198061
Ti         0.0011904539        0.0003040814       -0.0001200606
O        -0.0001385221        0.0000444533       -0.0002569202
O         0.0004594258        0.0002934162       -0.0000146340
O         0.0000656537        0.0004963295        0.0000923233
O         0.0003137683       -0.0001306595       -0.0003344338
O         0.0004986057        0.0000610646       -0.0000926587
O        -0.0001306465        0.0003149387        0.0003362259
O         0.0002960680        0.0004622047        0.0000134811
O         0.0000404586       -0.0001402437        0.0002582133
O        -0.0001256944       -0.0006345302       -0.0002947240
O         0.0004977872       -0.0000741530        0.0000959375
O        -0.0003149087        0.0004676229       -0.0000069865
O        -0.0001347519       -0.0001202549       -0.0004610196
O         0.0004050799       -0.0006332567       -0.0000129083
O        -0.0001423863       -0.0000527075        0.0002535447
O        -0.0001356168        0.0003941859        0.0001616404
O        -0.0003326261       -0.0001289183        0.0003303863
O        -0.0006334043       -0.0001257681        0.0002921230
O        -0.0000785839        0.0004963425       -0.0000976882
O        -0.0000496772       -0.0001417996       -0.0002579863
O        -0.0006325696        0.0004060053        0.0000100229
O         0.0003881163       -0.0001343837       -0.0001601491
O        -0.0001293632       -0.0003303424       -0.0003285992
O        -0.0001241971       -0.0001364975        0.0004604902
O         0.0004711279       -0.0003183974        0.0000067238
O        -0.0001212079        0.0001541388       -0.0004589840
O         0.0004100317        0.0006256798        0.0000185550
O         0.0001518959        0.0003928909       -0.0001579603
O         0.0006284294       -0.0001250621       -0.0002885532
O         0.0003956103        0.0001521437        0.0001573503
O        -0.0001255844        0.0006270011        0.0002880572
O         0.0006252850        0.0004093112       -0.0000181823
O         0.0001517546       -0.0001215394        0.0004577126
O        -0.0005981323        0.0000987166        0.0001605599
O         0.0001484880        0.0003128002       -0.0003375738
O         0.0001184201       -0.0006217736        0.0001758758
O         0.0002970772       -0.0004775757       -0.0000208003
O         0.0001671785        0.0000407178        0.0002625267
O        -0.0005874833        0.0003005932       -0.0000527476
O         0.0003199950       -0.0006137754       -0.0000838718
O         0.0000665226       -0.0005179207       -0.0000852223
O        -0.0004811337        0.0002953315        0.0000192048
O        -0.0006216140        0.0001166688       -0.0001753251
O        -0.0006128017        0.0003205803        0.0000846637
O        -0.0005188978        0.0000664778        0.0000842911
O         0.0003021650       -0.0005866201        0.0000527883
O         0.0000405359        0.0001681712       -0.0002658395
O         0.0001006242       -0.0005965432       -0.0001602037
O         0.0003140491        0.0001464084        0.0003403653
O        -0.0005830533       -0.0006113328        0.0000959120
O         0.0001623026       -0.0000521720       -0.0002568712
O        -0.0003368249       -0.0006147255        0.0000896332
O        -0.0001355314       -0.0004048000       -0.0001627961
O         0.0001428161       -0.0006338971        0.0002978129
O        -0.0005961813       -0.0001119397       -0.0001634650
O        -0.0001248969       -0.0006131285       -0.0000426561
O        -0.0003159407       -0.0004876247        0.0000118652
O        -0.0005186602       -0.0000743595       -0.0000901602
O        -0.0006157912       -0.0005928376       -0.0001813026
O        -0.0006326912       -0.0004224488       -0.0000081421
O        -0.0001290307       -0.0006197724       -0.0001784623
O        -0.0006188618       -0.0001283964        0.0001763175
O        -0.0004214275       -0.0006314485        0.0000079087
O        -0.0000759969       -0.0005183300        0.0000898602
O        -0.0005907845       -0.0006152827        0.0001770143
O        -0.0006124891       -0.0001246900        0.0000432123
O        -0.0004815691       -0.0003153108       -0.0000104212
O        -0.0001102830       -0.0005984648        0.0001619915
O        -0.0006365571        0.0001486678       -0.0002984209
O        -0.0004082779       -0.0001359071        0.0001619741
O        -0.0006154408       -0.0003420623       -0.0000886977
O        -0.0006114556       -0.0005819644       -0.0000941165
O        -0.0000542049        0.0001600002        0.0002601301
O         0.0001530179       -0.0003359044        0.0003344822
O        -0.0005721043       -0.0001300889        0.0000741853
O        -0.0001346979        0.0001331791        0.0004619106
O        -0.0003199239       -0.0005852165       -0.0000577859
O        -0.0005846862       -0.0003162559        0.0000593399
O         0.0001353131       -0.0001360094       -0.0004616181
O        -0.0003345880        0.0001541569       -0.0003357277
O        -0.0001282302       -0.0005721735       -0.0000733429
O        -0.0005721389        0.0001481622       -0.0000706664
O         0.0001379778        0.0006293541       -0.0002891633
O         0.0001383920       -0.0006153360        0.0000423057
O         0.0006248408       -0.0004224443        0.0000151134
O         0.0001380053        0.0001508600        0.0004606418
O        -0.0005813351        0.0006009038       -0.0001020031
O         0.0005807030       -0.0006144957       -0.0001840673
O         0.0001529197       -0.0004095074        0.0001613272
O        -0.0004235147        0.0006249672       -0.0000165771
O        -0.0006154548        0.0001398860       -0.0000414179
O        -0.0006136629        0.0005849271        0.0001832283
O        -0.0004055322        0.0001524816       -0.0001628785
O         0.0006053010       -0.0005822430        0.0001012772
O         0.0001497361        0.0001427237       -0.0004610236
O         0.0001463231       -0.0005721622        0.0000738088
O         0.0006283038        0.0001383595        0.0002902604
O         0.0006715065        0.0001204705        0.0001775639
O         0.0005425647        0.0003007389        0.0000493029
O         0.0000911138        0.0005520677        0.0001575004
O         0.0003170068        0.0006648831        0.0000856202
O         0.0005528686        0.0000928006       -0.0001578374
O         0.0006648396        0.0003201574       -0.0000873842
O         0.0003031687        0.0005399441       -0.0000499433
O         0.0001188835        0.0006713621       -0.0001750618
O         0.0006645897       -0.0005909138        0.0001792560
O         0.0005517030       -0.0001028726        0.0001619653
O        -0.0003224277        0.0005430399        0.0000559997
O        -0.0001251839        0.0006637082        0.0000399738
O         0.0005391868       -0.0006173838       -0.0000910694
O         0.0006708134       -0.0001327997       -0.0001773056
O        -0.0001289316        0.0005317015        0.0000785628
O        -0.0003340149        0.0006645405       -0.0000879799
O        -0.0005892005        0.0006655305       -0.0001793151
O        -0.0001092744        0.0005515974       -0.0001619543
O        -0.0001270109        0.0006709069        0.0001780531
O        -0.0006178134        0.0005396178        0.0000907743
O         0.0005310994       -0.0001276005       -0.0000789738
O         0.0006645219       -0.0003352849        0.0000887792
O         0.0006634937       -0.0001251896       -0.0000393648
O         0.0005436111       -0.0003221247       -0.0000563655
O         0.0006623032        0.0001416763        0.0000360499
O         0.0005396752        0.0006088407        0.0000967236
O         0.0001429889        0.0005344474       -0.0000780269
O         0.0005811550        0.0006648571        0.0001816157
O         0.0005345570        0.0001418781        0.0000785613
O         0.0006648475        0.0005821863       -0.0001821300
O         0.0006058656        0.0005422646       -0.0000953320
O         0.0001416412        0.0006627595       -0.0000374957
     192
 i =        2, E =     -5780.7000448977
Ti         0.0000692540        0.0000710641       -0.0000015262
Ti        -0.0005288986       -0.0005303835        0.0000000209
Ti         0.0000680684       -0.0005265275        0.0004972150
Ti        -0.0005293796        0.0000687401       -0.0004972375
Ti         0.0000722130       -0.0010847922        0.0000315749
Ti        -0.0005299897       -0.0000815083        0.0004882582
Ti         0.0004982809       -0.0005316562       -0.0000163745
Ti        -0.0007061652        0.0000674997       -0.0000803369
Ti        -0.0005314095       -0.0010824323       -0.0005261722
Ti         0.0000697827       -0.0000827461        0.0000090200
Ti        -0.0006997097       -0.0005402324       -0.0004287887
Ti         0.0004977317        0.0000690795        0.0005181955
Ti        -0.0010876410        0.0000714209       -0.0000296362
Ti        -0.0000832287       -0.0005294856       -0.0004865747
Ti        -0.0000833803        0.0000714265       -0.0000092057
Ti        -0.0010822883       -0.0005339083        0.0005288952
Ti        -0.0005422317       -0.0007011527        0.0004307989
Ti         0.0000693493        0.0004962571       -0.0005156731
Ti         0.0000674999       -0.0007073607        0.0000838586
Ti        -0.0005312727        0.0004986987        0.0000207959
Ti         0.0000661894        0.0007667453       -0.0000826621
Ti        -0.0005323970        0.0010627488        0.0005180289
Ti         0.0007567997       -0.0005423566        0.0004294850
Ti         0.0010682060        0.0000699315        0.0000204366
Ti        -0.0005417907        0.0007568855       -0.0004324851
Ti         0.0000701321        0.0010680258       -0.0000213220
Ti         0.0010645167       -0.0005324415       -0.0005175942
Ti         0.0007694535        0.0000671403        0.0000789484
Ti        -0.0010720828       -0.0010739952       -0.0000014080
Ti        -0.0000833732       -0.0000854417       -0.0000011956
Ti         0.0005090029       -0.0006986310       -0.0004470466
Ti        -0.0007002889        0.0005108978        0.0004450649
Ti        -0.0000857322       -0.0010907272       -0.0000417017
Ti        -0.0010894331       -0.0000843350        0.0000402501
Ti        -0.0006954336       -0.0006973869       -0.0000016269
Ti         0.0004995981        0.0004973975       -0.0000013184
Ti         0.0004957732       -0.0000809669       -0.0005058344
Ti        -0.0006917518       -0.0010795886       -0.0000798579
Ti        -0.0010835088        0.0005007979       -0.0005454308
Ti        -0.0000828780       -0.0007076089       -0.0000771361
Ti        -0.0007102693       -0.0000829466        0.0000744381
Ti         0.0005014728       -0.0010817566        0.0005440872
Ti        -0.0000818983        0.0004980324        0.0005053817
Ti        -0.0010787512       -0.0006934954        0.0000771519
Ti        -0.0010782246        0.0007512318       -0.0000759622
Ti        -0.0000867790        0.0010685529        0.0000290254
Ti         0.0007538941       -0.0006914915        0.0000029067
Ti         0.0010645920        0.0005012215        0.0005354594
Ti        -0.0000842482        0.0007695356        0.0000730412
Ti        -0.0010745309        0.0010565910        0.0000110646
Ti         0.0010605253       -0.0006943948       -0.0000632193
Ti         0.0007570363        0.0005078150       -0.0004470091
Ti         0.0005008004        0.0010647969       -0.0005341349
Ti        -0.0006933783        0.0007554147        0.0000007268
Ti        -0.0006952952        0.0010595216        0.0000682459
Ti         0.0005103488        0.0007584337        0.0004487561
Ti         0.0010549693       -0.0010704922       -0.0000102361
Ti         0.0007689642       -0.0000834710       -0.0000722547
Ti         0.0007518049       -0.0010772862        0.0000747380
Ti         0.0010687375       -0.0000896376       -0.0000289564
Ti         0.0007543334        0.0007532763       -0.0000007601
Ti         0.0010516222        0.0010536810       -0.0000018916
Ti         0.0007524317        0.0010594932       -0.0000633472
Ti         0.0010616586        0.0007514397        0.0000630946
O         0.0000292549        0.0000339844       -0.0001694707
O         0.0003035843        0.0000112534        0.0004671883
O         0.0000139164        0.0002987839        0.0001850969
O         0.0000234374        0.0000281868        0.0001338891
O         0.0002982046        0.0000118713       -0.0001855250
O         0.0000283629        0.0000254480       -0.0001323305
O         0.0000161429        0.0003043022       -0.0004687626
O         0.0000352479        0.0000288606        0.0001692251
O         0.0000222476        0.0002380758       -0.0005317796
O         0.0002954117        0.0000129176        0.0001957857
O        -0.0000081846        0.0003045124        0.0004956159
O         0.0000911309        0.0000127889       -0.0004639386
O         0.0003107659        0.0002188342        0.0001943278
O         0.0000275331       -0.0000082313        0.0001598518
O         0.0000851915        0.0003001171        0.0001330229
O        -0.0000143517        0.0000292015       -0.0001600656
O         0.0002422426        0.0000222680        0.0005302566
O         0.0000117845        0.0002959742       -0.0001986718
O        -0.0000061222        0.0000281855       -0.0001594600
O         0.0002171140        0.0003096037       -0.0001946879
O         0.0002988715        0.0000909055       -0.0001345778
O         0.0000297456       -0.0000165215        0.0001603258
O         0.0000120400        0.0000865156        0.0004630476
O         0.0003040482       -0.0000077265       -0.0004953293
O         0.0000137642       -0.0000978576       -0.0004684618
O         0.0003083703       -0.0002374625       -0.0001811477
O        -0.0000971379        0.0003001639       -0.0001378330
O        -0.0002613106        0.0000219642       -0.0005192817
O         0.0003013539       -0.0000961381        0.0001377903
O         0.0000222768       -0.0002542478        0.0005188919
O        -0.0002323152        0.0003098986        0.0001811611
O        -0.0001027275        0.0000130631        0.0004677081
O         0.0005634260       -0.0000192952        0.0002440274
O        -0.0000148858        0.0000277423        0.0001319277
O        -0.0000208508       -0.0005570101        0.0003835960
O         0.0000167976       -0.0002810889        0.0004596807
O        -0.0000129818        0.0000362387        0.0001738356
O         0.0005455713       -0.0000102596       -0.0004992197
O         0.0000212661       -0.0005428244       -0.0006453767
O         0.0000175933       -0.0002744454       -0.0001770214
O        -0.0002814185        0.0000141804       -0.0004592038
O        -0.0005569469       -0.0000178974       -0.0003821904
O        -0.0005425756        0.0000273327        0.0006448682
O        -0.0002732679        0.0000137238        0.0001743893
O        -0.0000069925        0.0005463102        0.0004997140
O         0.0000351772       -0.0000131367       -0.0001724348
O        -0.0000166096        0.0005647519       -0.0002442813
O         0.0000262272       -0.0000169508       -0.0001315766
O         0.0005140795        0.0001970953       -0.0002070620
O        -0.0000151665       -0.0000113597       -0.0001600038
O        -0.0000148888       -0.0005420551        0.0006733727
O         0.0000872494       -0.0002796775       -0.0001405856
O        -0.0000052425        0.0002388895        0.0005349514
O         0.0005633238        0.0000439607       -0.0002550543
O         0.0001035527       -0.0005325829       -0.0000202296
O        -0.0000121796       -0.0002810231       -0.0004872612
O        -0.0002718031        0.0000143496       -0.0001864313
O        -0.0005405363        0.0002343455        0.0000343235
O         0.0002189181       -0.0002896595        0.0002019060
O         0.0000468534       -0.0005571125       -0.0003929735
O        -0.0005562108        0.0000396259        0.0003926882
O        -0.0002880271        0.0002225693       -0.0002032195
O         0.0000096684       -0.0002714929        0.0001875067
O         0.0002391287       -0.0005405321       -0.0000355271
O        -0.0005328261        0.0000990973        0.0000205564
O        -0.0002799009       -0.0000093346        0.0004866357
O         0.0000404850        0.0005600941        0.0002550561
O         0.0002422939       -0.0000042448       -0.0005349328
O        -0.0002813385        0.0000892621        0.0001402462
O        -0.0005424342       -0.0000172984       -0.0006738151
O         0.0001911052        0.0005160145        0.0002062164
O        -0.0000092040       -0.0000151638        0.0001599334
O        -0.0000125975       -0.0000159913       -0.0001564134
O         0.0004947140        0.0000884710        0.0001759178
O         0.0000897901       -0.0000005716        0.0004640607
O         0.0000110979        0.0005491557       -0.0005276350
O         0.0005493517        0.0000111237        0.0005274972
O         0.0000009743        0.0000890329       -0.0004641710
O        -0.0000166784       -0.0000120316        0.0001577427
O         0.0000850184        0.0004951584       -0.0001741874
O         0.0004979371       -0.0000953962       -0.0001789617
O        -0.0000085972       -0.0002585488       -0.0005197216
O        -0.0001173657       -0.0005330661        0.0000145320
O        -0.0002357575       -0.0002878401       -0.0001872926
O         0.0000023145       -0.0001002721        0.0004693543
O         0.0005166161       -0.0002113634        0.0001900393
O        -0.0002549353       -0.0005407217        0.0000197693
O        -0.0000948770       -0.0002818931        0.0001459813
O        -0.0002903650       -0.0002401045        0.0001871050
O        -0.0005327516       -0.0001110569       -0.0000149675
O        -0.0005401589       -0.0002511648       -0.0000203568
O        -0.0002806701       -0.0000981876       -0.0001465547
O        -0.0002084280        0.0005162066       -0.0001894054
O        -0.0001016403        0.0000037717       -0.0004701499
O        -0.0000925732        0.0004979328        0.0001806830
O        -0.0002583540       -0.0000101213        0.0005187472
O         0.0005467484       -0.0000174643        0.0003864788
O        -0.0005661975       -0.0000111685        0.0004886418
O        -0.0000173702       -0.0005822447        0.0002336549
O         0.0000192754        0.0005318318        0.0006469796
O        -0.0005812232       -0.0000158540       -0.0002334070
O         0.0005312554        0.0000233968       -0.0006458966
O        -0.0000085356       -0.0005672972       -0.0004899408
O        -0.0000205178        0.0005469863       -0.0003843140
O         0.0005293483        0.0002318335       -0.0000376637
O        -0.0005835377        0.0000424213        0.0002453907
O         0.0000134148       -0.0005647727        0.0005188318
O         0.0001028153        0.0005194445        0.0000135483
O        -0.0005320873        0.0001964554        0.0002136372
O         0.0005477505        0.0000447603       -0.0003938177
O         0.0000889014       -0.0005116020        0.0001817325
O        -0.0000124534        0.0005315814       -0.0006728395
O         0.0002359045        0.0005286744        0.0000374985
O         0.0000382950       -0.0005850635       -0.0002451067
O         0.0000491383        0.0005472619        0.0003963630
O         0.0001953977       -0.0005315052       -0.0002144102
O        -0.0005122810        0.0000892658       -0.0001823183
O         0.0005316203       -0.0000146333        0.0006729894
O         0.0005197290        0.0000996249       -0.0000142412
O        -0.0005635413        0.0000204347       -0.0005185179
O         0.0005198935       -0.0001121861        0.0000074575
O        -0.0005352708       -0.0002144599       -0.0001985681
O        -0.0000932800       -0.0005102539       -0.0001855170
O        -0.0002524677        0.0005291591       -0.0000225093
O        -0.0005079539       -0.0000996567        0.0001856625
O         0.0005290364       -0.0002475275        0.0000219407
O        -0.0002125149       -0.0005340080        0.0001982841
O        -0.0001155629        0.0005204654       -0.0000075893
     192
 i =        3, E =     -5780.7003562948
Ti         0.0000330243        0.0000343920       -0.0000007067
Ti        -0.0000576809       -0.0000587659        0.0000004660
Ti         0.0000250231       -0.0000475837        0.0005653573
Ti        -0.0000503860        0.0000255965       -0.0005669586
Ti         0.0000243035       -0.0000780731        0.0002377022
Ti        -0.0000501607       -0.0000144584        0.0005568526
Ti         0.0000549291       -0.0000586498       -0.0000277486
Ti        -0.0004038940        0.0000131729        0.0003341541
Ti        -0.0000637590       -0.0000891005       -0.0007917671
Ti         0.0000337779       -0.0000236825        0.0000084328
Ti        -0.0004055979       -0.0000813623       -0.0008991965
Ti         0.0000471565        0.0000254168        0.0005955650
Ti        -0.0000797304        0.0000236864       -0.0002357264
Ti        -0.0000158176       -0.0000492557       -0.0005552260
Ti        -0.0000245310        0.0000346069       -0.0000088470
Ti        -0.0000894215       -0.0000645867        0.0007932092
Ti        -0.0000824204       -0.0004068747        0.0009007627
Ti         0.0000256735        0.0000453607       -0.0005932152
Ti         0.0000133206       -0.0004052255       -0.0003326192
Ti        -0.0000590774        0.0000546494        0.0000290267
Ti         0.0000123527        0.0004171749        0.0003287124
Ti        -0.0000637202        0.0000654652        0.0007689443
Ti         0.0004161985       -0.0000806057        0.0008943009
Ti         0.0000566032        0.0000235188        0.0002131259
Ti        -0.0000811015        0.0004164313       -0.0008965529
Ti         0.0000241288        0.0000558476       -0.0002146128
Ti         0.0000664655       -0.0000645063       -0.0007681949
Ti         0.0004190616        0.0000130514       -0.0003311835
Ti        -0.0000922108       -0.0000929807       -0.0000002106
Ti        -0.0000249424       -0.0000257027       -0.0000007048
Ti         0.0000762116       -0.0004056838       -0.0009262843
Ti        -0.0004059567        0.0000775708        0.0009255382
Ti        -0.0000139678       -0.0000809931       -0.0002482986
Ti        -0.0000803041       -0.0000130558        0.0002469242
Ti        -0.0004232803       -0.0004239604       -0.0000010210
Ti         0.0000545233        0.0000541132       -0.0000005504
Ti         0.0000459810       -0.0000150968       -0.0005848425
Ti        -0.0004087898       -0.0001105331        0.0001375449
Ti        -0.0000882925        0.0000592820       -0.0008201319
Ti        -0.0000048344       -0.0004044866        0.0003417196
Ti        -0.0004061271       -0.0000050747       -0.0003424785
Ti         0.0000596948       -0.0000885585        0.0008195014
Ti        -0.0000154042        0.0000470139        0.0005834966
Ti        -0.0001099778       -0.0004101085       -0.0001393154
Ti        -0.0001085064        0.0004200231        0.0001329023
Ti        -0.0000159627        0.0000558426        0.0002229358
Ti         0.0004333988       -0.0004212637       -0.0000068299
Ti         0.0000668496        0.0000608435        0.0007975000
Ti        -0.0000057227        0.0004174481       -0.0003390073
Ti        -0.0000931306        0.0000722981        0.0000244953
Ti         0.0000905745       -0.0004092222        0.0001640147
Ti         0.0004163559        0.0000744838       -0.0009203381
Ti         0.0000604452        0.0000672288       -0.0007964794
Ti        -0.0004217575        0.0004343452        0.0000087377
Ti        -0.0004108262        0.0000893007       -0.0001617531
Ti         0.0000757014        0.0004172036        0.0009217973
Ti         0.0000717701       -0.0000915862       -0.0000228033
Ti         0.0004170866       -0.0000065016        0.0003384284
Ti         0.0004205171       -0.0001082126       -0.0001326280
Ti         0.0000568993       -0.0000173749       -0.0002217765
Ti         0.0004339307        0.0004332103       -0.0000009479
Ti         0.0000703884        0.0000708819       -0.0000002958
Ti         0.0004185049        0.0000894565        0.0001557391
Ti         0.0000899617        0.0004194766       -0.0001564075
O        -0.0000890512       -0.0002105117        0.0000625860
O         0.0000114803        0.0000330885        0.0005467858
O        -0.0002199315        0.0000114838       -0.0000070160
O         0.0000581119       -0.0000899505        0.0005993603
O         0.0000114077       -0.0002202410        0.0000058432
O        -0.0000897571        0.0000576874       -0.0005996126
O         0.0000351572        0.0000106915       -0.0005467024
O        -0.0002092578       -0.0000888310       -0.0000620610
O        -0.0000823095        0.0003307784       -0.0002814342
O         0.0000119727        0.0002462118       -0.0000069078
O        -0.0000223128        0.0000096518        0.0005638393
O         0.0002610892       -0.0000788284       -0.0002217742
O         0.0000268087        0.0003144754        0.0003729957
O        -0.0000884962        0.0002359742       -0.0000603809
O         0.0002496884        0.0000358411        0.0003335041
O        -0.0000451323       -0.0000904176       -0.0006161625
O         0.0003328213       -0.0000826401        0.0002819340
O         0.0002458611        0.0000119929        0.0000064210
O         0.0002380307       -0.0000881731        0.0000609246
O         0.0003129263        0.0000260567       -0.0003728470
O         0.0000370222        0.0002536864       -0.0003347745
O        -0.0000909370       -0.0000468718        0.0006164492