 DBCSR| CPU Multiplication driver                                           XSMM (U)
 DBCSR| Multrec recursion limit                                              512 (U)
 DBCSR| Multiplication stack size                                           1000 (D)
 DBCSR| Maximum elements for images                                    UNLIMITED (U)
 DBCSR| Multiplicative factor virtual images                                   1 (U)
 DBCSR| Use multiplication densification                                       T (D)
 DBCSR| Multiplication size stacks                                             3 (U)
 DBCSR| Use memory pool for CPU allocation                                     F (U)
 DBCSR| Number of 3D layers                                               SINGLE (U)
 DBCSR| Use MPI memory allocation                                              F (U)
 DBCSR| Use RMA algorithm                                                      F (U)
 DBCSR| Use Communication thread                                               T (U)
 DBCSR| Communication thread load                                             87 (D)
 DBCSR| MPI: My process id                                                     0
 DBCSR| MPI: Number of processes                                             128
 DBCSR| OMP: Current number of threads                                         1
 DBCSR| OMP: Max number of threads                                             1
 DBCSR| Split modifier for TAS multiplication algorithm                  1.0E+00 (U)


  **** **** ******  **  PROGRAM STARTED AT               2025-06-22 05:25:34.957
 ***** ** ***  *** **   PROGRAM STARTED ON                             nid005727
 **    ****   ******    PROGRAM STARTED BY                                cahart
 ***** **    ** ** **   PROGRAM PROCESS ID                                157476
  **** **  *******  **  PROGRAM STARTED IN /mnt/lustre/a2fs-work2/work/e05/e05/c
                                           ahart/postdoc2/work/group/tio2/anatas
                                           e/cell-441/geo-opt/mp-390/neutral-fro
                                           m-hole/pbe-u-o/u-2.8

 CP2K| version string:                                       CP2K version 2024.3
 CP2K| source code revision number:                                  git:6712648
 CP2K| cp2kflags: omp libint fftw3 libxc libgrpp elpa parallel scalapack cosma x
 CP2K|            smm plumed2 spglib mkl sirius libvori libbqb libvdwxc hdf5
 CP2K| is freely available from                            https://www.cp2k.org/
 CP2K| Program compiled at                       Thu 12 Sep 2024 10:20:47 AM BST
 CP2K| Program compiled on                                                  ln04
 CP2K| Program compiled for                                                local
 CP2K| Data directory path    /mnt/lustre/a2fs-work1/work/y07/shared/apps/core/c
 CP2K| Input file name                                                 input.inp

 GLOBAL| Force Environment number                                              1
 GLOBAL| Basis set file name                                        BASIS_MOLOPT
 GLOBAL| Potential file name                                      GTH_POTENTIALS
 GLOBAL| MM Potential file name                                     MM_POTENTIAL
 GLOBAL| Coordinate file name                                         system.xyz
 GLOBAL| Method name                                                        CP2K
 GLOBAL| Project name                                                       tio2
 GLOBAL| Run type                                                         ENERGY
 GLOBAL| FFT library                                                       FFTW3
 GLOBAL| Diagonalization library                                            ELPA
 GLOBAL| DGEMM library                                                      BLAS
 GLOBAL| Minimum number of eigenvectors for ELPA usage                        16
 GLOBAL| Orthonormality check for eigenvectors                          DISABLED
 GLOBAL| Matrix multiplication library                                     COSMA
 GLOBAL| All-to-all communication in single precision                          F
 GLOBAL| FFTs using library dependent lengths                                  F
 GLOBAL| Grid backend                                                       AUTO
 GLOBAL| Global print level                                               MEDIUM
 GLOBAL| MPI I/O enabled                                                       T
 GLOBAL| Total number of message passing processes                           128
 GLOBAL| Number of threads for this process                                    1
 GLOBAL| This output is from process                                           0
 GLOBAL| Stack size for threads created by OpenMP (OMP_STACKSIZE)        default
 GLOBAL| CPU model name                          AMD EPYC 7742 64-Core Processor
 GLOBAL| CPUID                                                              1002

 MEMORY| system memory details [Kb]
 MEMORY|                        rank 0           min           max       average
 MEMORY| MemTotal            263341976     263341976     263341976     263341976
 MEMORY| MemFree             234490872     234490620     234490872     234490850
 MEMORY| Buffers                     0             0             0             0
 MEMORY| Cached                1762640       1762640       1762640       1762640
 MEMORY| Slab                  6044304       6044304       6044320       6044314
 MEMORY| SReclaimable           912916        912916        912916        912916
 MEMORY| MemLikelyFree       237166428     237166176     237166428     237166406


 *** Fundamental physical constants (SI units) ***

 *** Literature: B. J. Mohr and B. N. Taylor,
 ***             CODATA recommended values of the fundamental physical
 ***             constants: 2006, Web Version 5.1
 ***             http://physics.nist.gov/constants

 Speed of light in vacuum [m/s]                             2.99792458000000E+08
 Magnetic constant or permeability of vacuum [N/A**2]       1.25663706143592E-06
 Electric constant or permittivity of vacuum [F/m]          8.85418781762039E-12
 Planck constant (h) [J*s]                                  6.62606896000000E-34
 Planck constant (h-bar) [J*s]                              1.05457162825177E-34
 Elementary charge [C]                                      1.60217648700000E-19
 Electron mass [kg]                                         9.10938215000000E-31
 Electron g factor [ ]                                     -2.00231930436220E+00
 Proton mass [kg]                                           1.67262163700000E-27
 Fine-structure constant                                    7.29735253760000E-03
 Rydberg constant [1/m]                                     1.09737315685270E+07
 Avogadro constant [1/mol]                                  6.02214179000000E+23
 Boltzmann constant [J/K]                                   1.38065040000000E-23
 Atomic mass unit [kg]                                      1.66053878200000E-27
 Bohr radius [m]                                            5.29177208590000E-11

 *** Conversion factors ***

 [u] -> [a.u.]                                              1.82288848426455E+03
 [Angstrom] -> [Bohr] = [a.u.]                              1.88972613288564E+00
 [a.u.] = [Bohr] -> [Angstrom]                              5.29177208590000E-01
 [a.u.] -> [s]                                              2.41888432650478E-17
 [a.u.] -> [fs]                                             2.41888432650478E-02
 [a.u.] -> [J]                                              4.35974393937059E-18
 [a.u.] -> [N]                                              8.23872205491840E-08
 [a.u.] -> [K]                                              3.15774647902944E+05
 [a.u.] -> [kJ/mol]                                         2.62549961709828E+03
 [a.u.] -> [kcal/mol]                                       6.27509468713739E+02
 [a.u.] -> [Pa]                                             2.94210107994716E+13
 [a.u.] -> [bar]                                            2.94210107994716E+08
 [a.u.] -> [atm]                                            2.90362800883016E+08
 [a.u.] -> [eV]                                             2.72113838565563E+01
 [a.u.] -> [Hz]                                             6.57968392072181E+15
 [a.u.] -> [1/cm] (wave numbers)                            2.19474631370540E+05
 [a.u./Bohr**2] -> [1/cm]                                   5.14048714338585E+03
 

 CELL_TOP| Volume [angstrom^3]:                                      2198.132028
 CELL_TOP| Vector a [angstrom    15.120     0.000     0.000   |a| =    15.120000
 CELL_TOP| Vector b [angstrom     0.000    15.120     0.000   |b| =    15.120000
 CELL_TOP| Vector c [angstrom     0.000     0.000     9.615   |c| =     9.615020
 CELL_TOP| Angle (b,c), alpha [degree]:                                90.000000
 CELL_TOP| Angle (a,c), beta  [degree]:                                90.000000
 CELL_TOP| Angle (a,b), gamma [degree]:                                90.000000
 CELL_TOP| Requested initial symmetry:                       MONOCLINIC_GAMMA_AB
 CELL_TOP| Numerically orthorhombic:                                         YES
 CELL_TOP| Periodicity                                                       XYZ

 *** WARNING in atoms_input.F:123 :: Overwriting coordinates. Active    ***
 *** coordinates read from &COORD section. Active coordinates READ from ***
 *** &COORD section                                                     ***


 GENERATE|  Preliminary Number of Bonds generated:                             0
 GENERATE|  Achieved consistency in connectivity generation.

 CELL| Volume [angstrom^3]:                                          2198.132028
 CELL| Vector a [angstrom]:      15.120     0.000     0.000   |a| =    15.120000
 CELL| Vector b [angstrom]:       0.000    15.120     0.000   |b| =    15.120000
 CELL| Vector c [angstrom]:       0.000     0.000     9.615   |c| =     9.615020
 CELL| Angle (b,c), alpha [degree]:                                    90.000000
 CELL| Angle (a,c), beta  [degree]:                                    90.000000
 CELL| Angle (a,b), gamma [degree]:                                    90.000000
 CELL| Requested initial symmetry:                           MONOCLINIC_GAMMA_AB
 CELL| Numerically orthorhombic:                                             YES
 CELL| Periodicity                                                           XYZ

 CELL_REF| Volume [angstrom^3]:                                      2198.132028
 CELL_REF| Vector a [angstrom    15.120     0.000     0.000   |a| =    15.120000
 CELL_REF| Vector b [angstrom     0.000    15.120     0.000   |b| =    15.120000
 CELL_REF| Vector c [angstrom     0.000     0.000     9.615   |c| =     9.615020
 CELL_REF| Angle (b,c), alpha [degree]:                                90.000000
 CELL_REF| Angle (a,c), beta  [degree]:                                90.000000
 CELL_REF| Angle (a,b), gamma [degree]:                                90.000000
 CELL_REF| Requested initial symmetry:                       MONOCLINIC_GAMMA_AB
 CELL_REF| Numerically orthorhombic:                                         YES
 CELL_REF| Periodicity                                                       XYZ

 *******************************************************************************
 *******************************************************************************
 **                                                                           **
 **     #####                         ##              ##                      **
 **    ##   ##            ##          ##              ##                      **
 **   ##     ##                       ##            ######                    **
 **   ##     ##  ##   ##  ##   #####  ##  ##   ####   ##    #####    #####    **
 **   ##     ##  ##   ##  ##  ##      ## ##   ##      ##   ##   ##  ##   ##   **
 **   ##  ## ##  ##   ##  ##  ##      ####     ###    ##   ######   ######    **
 **    ##  ###   ##   ##  ##  ##      ## ##      ##   ##   ##       ##        **
 **     #######   #####   ##   #####  ##  ##  ####    ##    #####   ##        **
 **           ##                                                    ##        **
 **                                                                           **
 **                                                ... make the atoms dance   **
 **                                                                           **
 **            Copyright (C) by CP2K developers group (2000-2024)             **
 **                      J. Chem. Phys. 152, 194103 (2020)                    **
 **                                                                           **
 *******************************************************************************

 DFT| Spin unrestricted (spin-polarized) Kohn-Sham calculation               UKS
 DFT| Multiplicity                                                             1
 DFT| Number of spin states                                                    2
 DFT| Charge                                                                   0
 DFT| Self-interaction correction (SIC)                                       NO
 DFT| Cutoffs: density                                              1.000000E-10
 DFT|          gradient                                             1.000000E-10
 DFT|          tau                                                  1.000000E-10
 DFT|          cutoff_smoothing_range                               0.000000E+00
 DFT| XC density smoothing                                                  NONE
 DFT| XC derivatives                                                          PW

 DFT+U| Method                                                          MULLIKEN
 DFT+U| Check atomic kind information for details

 FUNCTIONAL| PBE:
 FUNCTIONAL| J.P.Perdew, K.Burke, M.Ernzerhof, Phys. Rev. Letter, vol. 77, n 18,
 FUNCTIONAL|  pp. 3865-3868, (1996) {spin polarized}                            


 QS| Method:                                                                 GPW
 QS| Density plane wave grid type                        NON-SPHERICAL FULLSPACE
 QS| Number of grid levels:                                                    4
 QS| Density cutoff [a.u.]:                                                300.0
 QS| Multi grid cutoff [a.u.]: 1) grid level                               300.0
 QS|                           2) grid level                               100.0
 QS|                           3) grid level                                33.3
 QS|                           4) grid level                                11.1
 QS| Grid level progression factor:                                          3.0
 QS| Relative density cutoff [a.u.]:                                        20.0
 QS| Interaction thresholds: eps_pgf_orb:                                1.0E-06
 QS|                         eps_filter_matrix:                          0.0E+00
 QS|                         eps_core_charge:                            1.0E-14
 QS|                         eps_rho_gspace:                             1.0E-12
 QS|                         eps_rho_rspace:                             1.0E-12
 QS|                         eps_gvg_rspace:                             1.0E-06
 QS|                         eps_ppl:                                    1.0E-02
 QS|                         eps_ppnl:                                   1.0E-08


 ATOMIC KIND INFORMATION

  1. Atomic kind: Ti                                    Number of atoms:      64

     Orbital Basis Set                                    DZVP-MOLOPT-SR-GTH-q12

       Number of orbital shell sets:                                           1
       Number of orbital shells:                                               8
       Number of primitive Cartesian functions:                                6
       Number of Cartesian basis functions:                                   31
       Number of spherical basis functions:                                   26
       Norm type:                                                              2

       Normalised Cartesian orbitals:

                        Set   Shell   Orbital            Exponent    Coefficient

                          1       1    2s                7.884570       0.015554
                                                         3.894698       0.963603
                                                         1.513589      -0.631435
                                                         0.596768      -0.343022
                                                         0.222222      -0.006534
                                                         0.077078       0.007652

                          1       2    3s                7.884570      -0.009340
                                                         3.894698       0.212624
                                                         1.513589      -0.258368
                                                         0.596768      -0.226206
                                                         0.222222       0.039438
                                                         0.077078       0.107179

                          1       3    4s                7.884570       0.276563
                                                         3.894698       0.105452
                                                         1.513589       0.085149
                                                         0.596768       0.882541
                                                         0.222222      -0.696223
                                                         0.077078       0.156638

                          1       4    3px               7.884570      -2.034794
                                                         3.894698       0.782008
                                                         1.513589       1.253903
                                                         0.596768       0.347823
                                                         0.222222       0.016778
                                                         0.077078      -0.000433
                          1       4    3py               7.884570      -2.034794
                                                         3.894698       0.782008
                                                         1.513589       1.253903
                                                         0.596768       0.347823
                                                         0.222222       0.016778
                                                         0.077078      -0.000433
                          1       4    3pz               7.884570      -2.034794
                                                         3.894698       0.782008
                                                         1.513589       1.253903
                                                         0.596768       0.347823
                                                         0.222222       0.016778
                                                         0.077078      -0.000433

                          1       5    4px               7.884570       0.376572
                                                         3.894698      -0.182875
                                                         1.513589      -0.474776
                                                         0.596768      -0.081757
                                                         0.222222       0.064432
                                                         0.077078       0.047279
                          1       5    4py               7.884570       0.376572
                                                         3.894698      -0.182875
                                                         1.513589      -0.474776
                                                         0.596768      -0.081757
                                                         0.222222       0.064432
                                                         0.077078       0.047279
                          1       5    4pz               7.884570       0.376572
                                                         3.894698      -0.182875
                                                         1.513589      -0.474776
                                                         0.596768      -0.081757
                                                         0.222222       0.064432
                                                         0.077078       0.047279

                          1       6    4dx2              7.884570       3.047350
                                                         3.894698       3.289529
                                                         1.513589       1.060616
                                                         0.596768       0.249930
                                                         0.222222       0.038806
                                                         0.077078       0.002319
                          1       6    4dxy              7.884570       5.278165
                                                         3.894698       5.697631
                                                         1.513589       1.837041
                                                         0.596768       0.432892
                                                         0.222222       0.067214
                                                         0.077078       0.004017
                          1       6    4dxz              7.884570       5.278165
                                                         3.894698       5.697631
                                                         1.513589       1.837041
                                                         0.596768       0.432892
                                                         0.222222       0.067214
                                                         0.077078       0.004017
                          1       6    4dy2              7.884570       3.047350
                                                         3.894698       3.289529
                                                         1.513589       1.060616
                                                         0.596768       0.249930
                                                         0.222222       0.038806
                                                         0.077078       0.002319
                          1       6    4dyz              7.884570       5.278165
                                                         3.894698       5.697631
                                                         1.513589       1.837041
                                                         0.596768       0.432892
                                                         0.222222       0.067214
                                                         0.077078       0.004017
                          1       6    4dz2              7.884570       3.047350
                                                         3.894698       3.289529
                                                         1.513589       1.060616
                                                         0.596768       0.249930
                                                         0.222222       0.038806
                                                         0.077078       0.002319

                          1       7    5dx2              7.884570      -2.119015
                                                         3.894698      -1.237751
                                                         1.513589      -0.746777
                                                         0.596768      -0.071514
                                                         0.222222       0.004086
                                                         0.077078       0.017595
                          1       7    5dxy              7.884570      -3.670241
                                                         3.894698      -2.143848
                                                         1.513589      -1.293455
                                                         0.596768      -0.123865
                                                         0.222222       0.007077
                                                         0.077078       0.030475
                          1       7    5dxz              7.884570      -3.670241
                                                         3.894698      -2.143848
                                                         1.513589      -1.293455
                                                         0.596768      -0.123865
                                                         0.222222       0.007077
                                                         0.077078       0.030475
                          1       7    5dy2              7.884570      -2.119015
                                                         3.894698      -1.237751
                                                         1.513589      -0.746777
                                                         0.596768      -0.071514
                                                         0.222222       0.004086
                                                         0.077078       0.017595
                          1       7    5dyz              7.884570      -3.670241
                                                         3.894698      -2.143848
                                                         1.513589      -1.293455
                                                         0.596768      -0.123865
                                                         0.222222       0.007077
                                                         0.077078       0.030475
                          1       7    5dz2              7.884570      -2.119015
                                                         3.894698      -1.237751
                                                         1.513589      -0.746777
                                                         0.596768      -0.071514
                                                         0.222222       0.004086
                                                         0.077078       0.017595

                          1       8    5fx3              7.884570      -0.342058
                                                         3.894698       0.375798
                                                         1.513589      -0.706469
                                                         0.596768      -0.229994
                                                         0.222222      -0.012723
                                                         0.077078       0.003932
                          1       8    5fx2y             7.884570      -0.764866
                                                         3.894698       0.840310
                                                         1.513589      -1.579712
                                                         0.596768      -0.514282
                                                         0.222222      -0.028450
                                                         0.077078       0.008792
                          1       8    5fx2z             7.884570      -0.764866
                                                         3.894698       0.840310
                                                         1.513589      -1.579712
                                                         0.596768      -0.514282
                                                         0.222222      -0.028450
                                                         0.077078       0.008792
                          1       8    5fxy2             7.884570      -0.764866
                                                         3.894698       0.840310
                                                         1.513589      -1.579712
                                                         0.596768      -0.514282
                                                         0.222222      -0.028450
                                                         0.077078       0.008792
                          1       8    5fxyz             7.884570      -1.324787
                                                         3.894698       1.455460
                                                         1.513589      -2.736142
                                                         0.596768      -0.890763
                                                         0.222222      -0.049276
                                                         0.077078       0.015229
                          1       8    5fxz2             7.884570      -0.764866
                                                         3.894698       0.840310
                                                         1.513589      -1.579712
                                                         0.596768      -0.514282
                                                         0.222222      -0.028450
                                                         0.077078       0.008792
                          1       8    5fy3              7.884570      -0.342058
                                                         3.894698       0.375798
                                                         1.513589      -0.706469
                                                         0.596768      -0.229994
                                                         0.222222      -0.012723
                                                         0.077078       0.003932
                          1       8    5fy2z             7.884570      -0.764866
                                                         3.894698       0.840310
                                                         1.513589      -1.579712
                                                         0.596768      -0.514282
                                                         0.222222      -0.028450
                                                         0.077078       0.008792
                          1       8    5fyz2             7.884570      -0.764866
                                                         3.894698       0.840310
                                                         1.513589      -1.579712
                                                         0.596768      -0.514282
                                                         0.222222      -0.028450
                                                         0.077078       0.008792
                          1       8    5fz3              7.884570      -0.342058
                                                         3.894698       0.375798
                                                         1.513589      -0.706469
                                                         0.596768      -0.229994
                                                         0.222222      -0.012723
                                                         0.077078       0.003932

       Atomic covalent radius [Angstrom]:                                  1.320

       Atomic van der Waals radius [Angstrom]:                             1.760

     GTH Potential information for                                   GTH-PBE-q12

       Description:                       Goedecker-Teter-Hutter pseudopotential
                                           Goedecker et al., PRB 54, 1703 (1996)
                                          Hartwigsen et al., PRB 58, 3641 (1998)
                                                      Krack, TCA 114, 145 (2005)

       Gaussian exponent of the core charge distribution:               3.462604
       Electronic configuration (s p d ...):                           4   6   2

       Parameters of the local part of the GTH pseudopotential:

                          rloc        C1          C2          C3          C4
                        0.380000    8.711442   -0.700287

       Parameters of the non-local part of the GTH pseudopotential:

                   l      r(l)      h(i,j,l)

                   0    0.337771    2.575264    3.692971
                                    3.692971   -4.767605
                   1    0.242531   -4.630541    8.870875
                                    8.870875  -10.496161
                   2    0.243317   -9.406653

  2. Atomic kind: O                                     Number of atoms:     128

     Orbital Basis Set                                     DZVP-MOLOPT-SR-GTH-q6

       Number of orbital shell sets:                                           1
       Number of orbital shells:                                               5
       Number of primitive Cartesian functions:                                5
       Number of Cartesian basis functions:                                   14
       Number of spherical basis functions:                                   13
       Norm type:                                                              2

       Normalised Cartesian orbitals:

                        Set   Shell   Orbital            Exponent    Coefficient

                          1       1    2s               10.389228       0.396646
                                                         3.849621       0.208811
                                                         1.388401      -0.301641
                                                         0.496955      -0.274061
                                                         0.162492      -0.033677

                          1       2    3s               10.389228       0.303673
                                                         3.849621       0.240943
                                                         1.388401      -0.313066
                                                         0.496955      -0.043055
                                                         0.162492       0.213991

                          1       3    3px              10.389228      -1.530415
                                                         3.849621      -1.371928
                                                         1.388401      -0.761951
                                                         0.496955      -0.253695
                                                         0.162492      -0.035541
                          1       3    3py              10.389228      -1.530415
                                                         3.849621      -1.371928
                                                         1.388401      -0.761951
                                                         0.496955      -0.253695
                                                         0.162492      -0.035541
                          1       3    3pz              10.389228      -1.530415
                                                         3.849621      -1.371928
                                                         1.388401      -0.761951
                                                         0.496955      -0.253695
                                                         0.162492      -0.035541

                          1       4    4px              10.389228      -0.565392
                                                         3.849621      -0.038231
                                                         1.388401      -0.382373
                                                         0.496955       0.179070
                                                         0.162492       0.122714
                          1       4    4py              10.389228      -0.565392
                                                         3.849621      -0.038231
                                                         1.388401      -0.382373
                                                         0.496955       0.179070
                                                         0.162492       0.122714
                          1       4    4pz              10.389228      -0.565392
                                                         3.849621      -0.038231
                                                         1.388401      -0.382373
                                                         0.496955       0.179070
                                                         0.162492       0.122714

                          1       5    4dx2             10.389228       1.867377
                                                         3.849621       0.670994
                                                         1.388401       1.353441
                                                         0.496955       0.273538
                                                         0.162492       0.006620
                          1       5    4dxy             10.389228       3.234392
                                                         3.849621       1.162195
                                                         1.388401       2.344229
                                                         0.496955       0.473781
                                                         0.162492       0.011466
                          1       5    4dxz             10.389228       3.234392
                                                         3.849621       1.162195
                                                         1.388401       2.344229
                                                         0.496955       0.473781
                                                         0.162492       0.011466
                          1       5    4dy2             10.389228       1.867377
                                                         3.849621       0.670994
                                                         1.388401       1.353441
                                                         0.496955       0.273538
                                                         0.162492       0.006620
                          1       5    4dyz             10.389228       3.234392
                                                         3.849621       1.162195
                                                         1.388401       2.344229
                                                         0.496955       0.473781
                                                         0.162492       0.011466
                          1       5    4dz2             10.389228       1.867377
                                                         3.849621       0.670994
                                                         1.388401       1.353441
                                                         0.496955       0.273538
                                                         0.162492       0.006620

       Atomic covalent radius [Angstrom]:                                  0.730

       Atomic van der Waals radius [Angstrom]:                             1.520

     GTH Potential information for                                    GTH-PBE-q6

       Description:                       Goedecker-Teter-Hutter pseudopotential
                                           Goedecker et al., PRB 54, 1703 (1996)
                                          Hartwigsen et al., PRB 58, 3641 (1998)
                                                      Krack, TCA 114, 145 (2005)

       Gaussian exponent of the core charge distribution:               8.360253
       Electronic configuration (s p d ...):                               2   4

       Parameters of the local part of the GTH pseudopotential:

                          rloc        C1          C2          C3          C4
                        0.244554  -16.667215    2.487311

       Parameters of the non-local part of the GTH pseudopotential:

                   l      r(l)      h(i,j,l)

                   0    0.220956   18.337458
                   1    0.211332

     A DFT+U correction is applied to atoms of this atomic kind:
       Angular quantum momentum number L:                                      1
       U(eff) = (U - J) value in [eV]:                                     2.800


 MOLECULE KIND INFORMATION


 All atoms are their own molecule, skipping detailed information


 TOTAL NUMBERS AND MAXIMUM NUMBERS

  Total number of            - Atomic kinds:                                   2
                             - Atoms:                                        192
                             - Shell sets:                                   192
                             - Shells:                                      1152
                             - Primitive Cartesian functions:               1024
                             - Cartesian basis functions:                   3776
                             - Spherical basis functions:                   3328

  Maximum angular momentum of- Orbital basis functions:                        3
                             - Local part of the GTH pseudopotential:          2
                             - Non-local part of the GTH pseudopotential:      3


 MODULE QUICKSTEP: ATOMIC COORDINATES IN ANGSTROM

   Atom Kind Element         X             Y             Z       Z(eff)     Mass
      1    1 Ti   22     -0.004265      0.067304     -0.006035  12.0000  47.8670
      2    1 Ti   22      1.895676      1.896378      4.809189  12.0000  47.8670
      3    1 Ti   22     -0.002725      1.914000      2.437421  12.0000  47.8670
      4    1 Ti   22      1.885377      0.011865      7.212528  12.0000  47.8670
      5    1 Ti   22     -0.003483      3.767442     -0.009378  12.0000  47.8670
      6    1 Ti   22      1.896980     13.247858      4.814558  12.0000  47.8670
      7    1 Ti   22     11.333184      1.904559      2.402384  12.0000  47.8670
      8    1 Ti   22      5.653867      0.006579      7.211966  12.0000  47.8670
      9    1 Ti   22      1.888009      3.783661      7.210531  12.0000  47.8670
     10    1 Ti   22     -0.001100     13.258599      2.434603  12.0000  47.8670
     11    1 Ti   22      5.661939      1.895718      4.807969  12.0000  47.8670
     12    1 Ti   22     11.331858      0.017942     -0.002186  12.0000  47.8670
     13    1 Ti   22      3.766605      0.021765      0.005726  12.0000  47.8670
     14    1 Ti   22     13.217726      1.889360      4.805587  12.0000  47.8670
     15    1 Ti   22     13.224109      0.010332      7.215823  12.0000  47.8670
     16    1 Ti   22      3.773889      1.916807      2.398483  12.0000  47.8670
     17    1 Ti   22      1.900990      5.668314      4.813453  12.0000  47.8670
     18    1 Ti   22     -0.001226     11.500236     -0.034136  12.0000  47.8670
     19    1 Ti   22      0.000802      5.684566      2.435857  12.0000  47.8670
     20    1 Ti   22      1.889220     11.351215      7.199928  12.0000  47.8670
     21    1 Ti   22      0.000692      7.448205     -0.035035  12.0000  47.8670
     22    1 Ti   22      1.927769      9.464552      4.811807  12.0000  47.8670
     23    1 Ti   22      7.550705      1.908155      2.400763  12.0000  47.8670
     24    1 Ti   22      9.438154      0.004359      7.219374  12.0000  47.8670
     25    1 Ti   22      1.892102      7.569165      7.196263  12.0000  47.8670
     26    1 Ti   22      0.003067      9.471633      2.492706  12.0000  47.8670
     27    1 Ti   22      9.441977      1.888148      4.805775  12.0000  47.8670
     28    1 Ti   22      7.544055      0.015235     -0.001482  12.0000  47.8670
     29    1 Ti   22      3.772036      3.807502      0.002830  12.0000  47.8670
     30    1 Ti   22     13.219906     13.246024      4.812233  12.0000  47.8670
     31    1 Ti   22     11.345931      5.691059      2.400103  12.0000  47.8670
     32    1 Ti   22      5.665346     11.362282      7.211265  12.0000  47.8670
     33    1 Ti   22     13.223721      3.778145      7.211316  12.0000  47.8670
     34    1 Ti   22      3.770368     13.248545      2.401435  12.0000  47.8670
     35    1 Ti   22      5.676295      5.674003      4.808165  12.0000  47.8670
     36    1 Ti   22     11.334830     11.357409     -0.000242  12.0000  47.8670
     37    1 Ti   22     11.342975     13.246773      2.402411  12.0000  47.8670
     38    1 Ti   22      5.658031      3.783659      7.210705  12.0000  47.8670
     39    1 Ti   22      3.780229     11.360235      0.001369  12.0000  47.8670
     40    1 Ti   22     13.222532      5.662954      4.815946  12.0000  47.8670
     41    1 Ti   22      5.666846     13.242415      4.799844  12.0000  47.8670
     42    1 Ti   22     11.334365      3.798089      0.000102  12.0000  47.8670
     43    1 Ti   22     13.230381     11.352442      7.200493  12.0000  47.8670
     44    1 Ti   22      3.780296      5.698473      2.403878  12.0000  47.8670
     45    1 Ti   22      3.786190      7.586109     -0.002299  12.0000  47.8670
     46    1 Ti   22     13.200536      9.462308      4.815060  12.0000  47.8670
     47    1 Ti   22      7.566854      5.692482      2.404254  12.0000  47.8670
     48    1 Ti   22      9.450628     11.354728      7.214211  12.0000  47.8670
     49    1 Ti   22     13.231203      7.566379      7.195957  12.0000  47.8670
     50    1 Ti   22      3.798834      9.473289      2.399384  12.0000  47.8670
     51    1 Ti   22      9.457465      5.667841      4.809583  12.0000  47.8670
     52    1 Ti   22      7.553670     11.364487     -0.003307  12.0000  47.8670
     53    1 Ti   22     11.335853      9.472235      2.395693  12.0000  47.8670
     54    1 Ti   22      5.671894      7.565888      7.208775  12.0000  47.8670
     55    1 Ti   22      5.690148      9.464701      4.816817  12.0000  47.8670
     56    1 Ti   22     11.338628      7.583234      0.003236  12.0000  47.8670
     57    1 Ti   22      9.442801      3.777907      7.212565  12.0000  47.8670
     58    1 Ti   22      7.558528     13.247319      2.404923  12.0000  47.8670
     59    1 Ti   22      7.549832      3.802500     -0.001332  12.0000  47.8670
     60    1 Ti   22      9.448156     13.240968      4.804395  12.0000  47.8670
     61    1 Ti   22      7.562719      7.579185     -0.003278  12.0000  47.8670
     62    1 Ti   22      9.449589      9.463676      4.815842  12.0000  47.8670
     63    1 Ti   22      7.567375      9.472409      2.396374  12.0000  47.8670
     64    1 Ti   22      9.457830      7.561318      7.205446  12.0000  47.8670
     65    2 O     8      0.002595      0.018519      1.996970   6.0000  15.9994
     66    2 O     8      1.883125      1.892253      6.796886   6.0000  15.9994
     67    2 O     8     -0.001521      1.884275      4.396318   6.0000  15.9994
     68    2 O     8      1.879644      0.061152      9.203559   6.0000  15.9994
     69    2 O     8      1.882158      0.004585      5.217078   6.0000  15.9994
     70    2 O     8     -0.001345      1.920708      0.425342   6.0000  15.9994
     71    2 O     8      1.886795      1.938493      2.815801   6.0000  15.9994
     72    2 O     8     -0.003950      0.001051      7.627112   6.0000  15.9994
     73    2 O     8     -0.003912      3.810649      1.999398   6.0000  15.9994
     74    2 O     8      1.888097     13.240105      6.801532   6.0000  15.9994
     75    2 O     8     11.340319      1.885237      4.394154   6.0000  15.9994
     76    2 O     8      5.650866     -0.000150      9.209323   6.0000  15.9994
     77    2 O     8      1.883772      3.781029      5.217597   6.0000  15.9994
     78    2 O     8     -0.000909     13.292236      0.402538   6.0000  15.9994
     79    2 O     8      5.658758      1.942575      2.813281   6.0000  15.9994
     80    2 O     8     11.335294     -0.000172      7.624086   6.0000  15.9994
     81    2 O     8      3.766710      0.001111      7.627571   6.0000  15.9994
     82    2 O     8     13.228152      1.893446      2.814902   6.0000  15.9994
     83    2 O     8     13.228047      0.059738      9.204494   6.0000  15.9994
     84    2 O     8      3.771465      1.882579      4.394493   6.0000  15.9994
     85    2 O     8      1.888727      5.670176      6.794987   6.0000  15.9994
     86    2 O     8      0.000604     11.341583      1.936662   6.0000  15.9994
     87    2 O     8     -0.000485      5.659516      0.406683   6.0000  15.9994
     88    2 O     8      1.883605     11.349280      5.220265   6.0000  15.9994
     89    2 O     8      0.000904      7.606293      1.939052   6.0000  15.9994
     90    2 O     8      1.876814      9.460687      6.797562   6.0000  15.9994
     91    2 O     8      7.550637      1.883540      4.393001   6.0000  15.9994
     92    2 O     8      9.441128      0.007126      9.204068   6.0000  15.9994
     93    2 O     8      1.884489      7.575095      5.218235   6.0000  15.9994
     94    2 O     8     -0.000223      9.473620      0.264496   6.0000  15.9994
     95    2 O     8      9.446629      1.888023      2.814827   6.0000  15.9994
     96    2 O     8      7.540050      0.001762      7.628123   6.0000  15.9994
     97    2 O     8      3.768672      0.019045      1.993434   6.0000  15.9994
     98    2 O     8     13.233060      1.889190      6.798204   6.0000  15.9994
     99    2 O     8      0.001035      5.655810      4.395327   6.0000  15.9994
    100    2 O     8      1.873165     11.287071      9.210417   6.0000  15.9994
    101    2 O     8     13.235876      0.003168      5.218969   6.0000  15.9994
    102    2 O     8      3.768650      1.918058      0.415188   6.0000  15.9994
    103    2 O     8      1.886552      5.714679      2.818493   6.0000  15.9994
    104    2 O     8     -0.000553     11.421121      7.610827   6.0000  15.9994
    105    2 O     8     11.301485      1.909349      0.411865   6.0000  15.9994
    106    2 O     8      5.652866      0.003742      5.217264   6.0000  15.9994
    107    2 O     8      5.648916      1.890928      6.799161   6.0000  15.9994
    108    2 O     8     11.353245      0.010976      1.987498   6.0000  15.9994
    109    2 O     8      1.882421      3.822877      9.202705   6.0000  15.9994
    110    2 O     8     -0.000887     13.236858      4.392006   6.0000  15.9994
    111    2 O     8     -0.003261      3.763839      7.625141   6.0000  15.9994
    112    2 O     8      1.883109     13.237829      2.817863   6.0000  15.9994
    113    2 O     8      3.766962      3.816908      1.990369   6.0000  15.9994
    114    2 O     8     13.229423     13.240359      6.801851   6.0000  15.9994
    115    2 O     8     11.350497      5.651248      4.397314   6.0000  15.9994
    116    2 O     8      5.659168     11.410567      9.203704   6.0000  15.9994
    117    2 O     8     13.236518      3.775472      5.216957   6.0000  15.9994
    118    2 O     8      3.709110     13.245905      0.411474   6.0000  15.9994
    119    2 O     8      5.671590      5.710925      2.817055   6.0000  15.9994
    120    2 O     8     11.349186     11.362496      7.624777   6.0000  15.9994
    121    2 O     8     11.359012     13.242666      0.405536   6.0000  15.9994
    122    2 O     8      5.654340      3.781623      5.219721   6.0000  15.9994
    123    2 O     8      3.766722     11.356982      7.625662   6.0000  15.9994
    124    2 O     8     13.236124      5.713867      2.817683   6.0000  15.9994
    125    2 O     8      5.648011     13.238674      6.795610   6.0000  15.9994
    126    2 O     8     11.352963      3.800857      1.990777   6.0000  15.9994
    127    2 O     8     13.244867     11.292258      9.209679   6.0000  15.9994
    128    2 O     8      3.777788      5.660639      4.397367   6.0000  15.9994
    129    2 O     8      5.650241      5.674396      6.794380   6.0000  15.9994
    130    2 O     8     11.352599     11.358777      1.990055   6.0000  15.9994
    131    2 O     8     13.228070      3.815177      9.203292   6.0000  15.9994
    132    2 O     8      3.771657     13.235527      4.396744   6.0000  15.9994
    133    2 O     8     11.356842      5.699692      0.409987   6.0000  15.9994
    134    2 O     8      5.698622     11.352494      5.220909   6.0000  15.9994
    135    2 O     8      3.768552      3.766928      7.624161   6.0000  15.9994
    136    2 O     8     13.235214     13.237519      2.815045   6.0000  15.9994
    137    2 O     8     13.237085     11.349764      5.221109   6.0000  15.9994
    138    2 O     8      3.762218      5.707236      0.409328   6.0000  15.9994
    139    2 O     8      5.658111     13.240447      2.812974   6.0000  15.9994
    140    2 O     8     11.338518      3.761194      7.625035   6.0000  15.9994
    141    2 O     8      3.769511     11.358151      1.992374   6.0000  15.9994
    142    2 O     8     13.229555      5.664889      6.796322   6.0000  15.9994
    143    2 O     8     11.346523     13.238583      4.394641   6.0000  15.9994
    144    2 O     8      5.655608      3.825935      9.204879   6.0000  15.9994
    145    2 O     8      3.768199      7.589746      1.992155   6.0000  15.9994
    146    2 O     8     13.242955      9.460147      6.799111   6.0000  15.9994
    147    2 O     8      7.569773      5.649166      4.396788   6.0000  15.9994
    148    2 O     8      9.454478     11.353598      9.203506   6.0000  15.9994
    149    2 O     8     13.237259      7.571925      5.220061   6.0000  15.9994
    150    2 O     8      3.823760      9.475314      0.413170   6.0000  15.9994
    151    2 O     8      9.463454      5.709306      2.816491   6.0000  15.9994
    152    2 O     8      7.553464     11.348949      7.625264   6.0000  15.9994
    153    2 O     8     11.342286      9.472006      0.413421   6.0000  15.9994
    154    2 O     8      5.701494      7.572172      5.218720   6.0000  15.9994
    155    2 O     8      5.647604      9.462167      6.803725   6.0000  15.9994
    156    2 O     8     11.353496      7.585898      1.992126   6.0000  15.9994
    157    2 O     8      9.442008      3.828017      9.202028   6.0000  15.9994
    158    2 O     8      7.560655     13.242123      4.391451   6.0000  15.9994
    159    2 O     8      7.546309      3.769993      7.623396   6.0000  15.9994
    160    2 O     8      9.455003     13.241108      2.813655   6.0000  15.9994
    161    2 O     8      7.531530      0.014669      1.992791   6.0000  15.9994
    162    2 O     8      9.415872      1.887523      6.801421   6.0000  15.9994
    163    2 O     8      0.002363      9.470486      4.388709   6.0000  15.9994
    164    2 O     8      1.876590      7.663303      9.208305   6.0000  15.9994
    165    2 O     8      9.469648      0.001873      5.220977   6.0000  15.9994
    166    2 O     8      7.533771      1.908663      0.410975   6.0000  15.9994
    167    2 O     8      1.893130      9.474192      2.809887   6.0000  15.9994
    168    2 O     8      0.000420      7.473399      7.609575   6.0000  15.9994
    169    2 O     8      7.587131      3.806340      1.989844   6.0000  15.9994
    170    2 O     8      9.417437     13.237202      6.800896   6.0000  15.9994
    171    2 O     8     11.349246      9.470120      4.398759   6.0000  15.9994
    172    2 O     8      5.666157      7.592831      9.194058   6.0000  15.9994
    173    2 O     8      9.468311      3.773810      5.218790   6.0000  15.9994
    174    2 O     8      7.584580     13.245661      0.413355   6.0000  15.9994
    175    2 O     8      5.676500      9.469898      2.825916   6.0000  15.9994
    176    2 O     8     11.353702      7.531881      7.624798   6.0000  15.9994
    177    2 O     8      3.768057      7.533663      7.621888   6.0000  15.9994
    178    2 O     8     13.234885      9.474100      2.809391   6.0000  15.9994
    179    2 O     8     13.246457      7.659052      9.207810   6.0000  15.9994
    180    2 O     8      3.784914      9.470927      4.401785   6.0000  15.9994
    181    2 O     8      9.463970      5.666234      6.796296   6.0000  15.9994
    182    2 O     8      7.540216     11.358317      1.990879   6.0000  15.9994
    183    2 O     8      7.533793      5.699722      0.412537   6.0000  15.9994
    184    2 O     8      9.470823     11.352016      5.222792   6.0000  15.9994
    185    2 O     8      7.587511      7.586655      1.990392   6.0000  15.9994
    186    2 O     8      9.467552      9.460249      6.802603   6.0000  15.9994
    187    2 O     8      7.575379      9.470734      4.399218   6.0000  15.9994
    188    2 O     8      9.457963      7.595288      9.202070   6.0000  15.9994
    189    2 O     8      9.470402      7.567775      5.221101   6.0000  15.9994
    190    2 O     8      7.533567      9.474013      0.408856   6.0000  15.9994
    191    2 O     8      9.460065      9.476963      2.816646   6.0000  15.9994
    192    2 O     8      7.566777      7.538340      7.619483   6.0000  15.9994



 SCF PARAMETERS         Density guess:                                   RESTART
                        --------------------------------------------------------
                        max_scf:                                              40
                        max_scf_history:                                       0
                        max_diis:                                              4
                        --------------------------------------------------------
                        eps_scf:                                        1.00E-06
                        eps_scf_history:                                0.00E+00
                        eps_diis:                                       1.00E-01
                        eps_eigval:                                     1.00E-05
                        --------------------------------------------------------
                        level_shift [a.u.]:                             0.000000
                        --------------------------------------------------------
                        Outer loop SCF in use 
                        No variables optimised in outer loop
                        eps_scf                                         1.00E-06
                        max_scf                                               60
                        No outer loop optimization
                        step_size                                       5.00E-01

 PW_GRID| Information for grid number                                          1
 PW_GRID| Grid distributed over                                   128 processors
 PW_GRID| Real space group dimensions                                   128    1
 PW_GRID| the grid is blocked:                                                NO
 PW_GRID| Cutoff [a.u.]                                                    300.0
 PW_GRID| spherical cutoff:                                                   NO
 PW_GRID|   Bounds   1           -112     112                Points:         225
 PW_GRID|   Bounds   2           -112     112                Points:         225
 PW_GRID|   Bounds   3            -72      71                Points:         144
 PW_GRID| Volume element (a.u.^3)  0.2035E-02     Volume (a.u.^3)     14833.7304
 PW_GRID| Grid span                                                    FULLSPACE
 PW_GRID|   Distribution                         Average         Max         Min
 PW_GRID|   G-Vectors                            56953.1       57150       56925
 PW_GRID|   G-Rays                                 253.1         254         253
 PW_GRID|   Real Space Points                    56953.1       64800       32400

 PW_GRID| Information for grid number                                          2
 PW_GRID| Number of the reference grid                                         1
 PW_GRID| Grid distributed over                                   128 processors
 PW_GRID| Real space group dimensions                                   128    1
 PW_GRID| the grid is blocked:                                                NO
 PW_GRID| Cutoff [a.u.]                                                    100.0
 PW_GRID| spherical cutoff:                                                   NO
 PW_GRID|   Bounds   1            -67      67                Points:         135
 PW_GRID|   Bounds   2            -67      67                Points:         135
 PW_GRID|   Bounds   3            -40      40                Points:          81
 PW_GRID| Volume element (a.u.^3)  0.1005E-01     Volume (a.u.^3)     14833.7304
 PW_GRID| Grid span                                                    FULLSPACE
 PW_GRID|   Distribution                         Average         Max         Min
 PW_GRID|   G-Vectors                            11533.0       12150       10800
 PW_GRID|   G-Rays                                  85.4          90          80
 PW_GRID|   Real Space Points                    11533.0       21870       10935

 PW_GRID| Information for grid number                                          3
 PW_GRID| Number of the reference grid                                         1
 PW_GRID| Grid distributed over                                   128 processors
 PW_GRID| Real space group dimensions                                     8   16
 PW_GRID| the grid is blocked:                                                NO
 PW_GRID| Cutoff [a.u.]                                                     33.3
 PW_GRID| spherical cutoff:                                                   NO
 PW_GRID|   Bounds   1            -37      37                Points:          75
 PW_GRID|   Bounds   2            -37      37                Points:          75
 PW_GRID|   Bounds   3            -24      23                Points:          48
 PW_GRID| Volume element (a.u.^3)  0.5494E-01     Volume (a.u.^3)     14833.7304
 PW_GRID| Grid span                                                    FULLSPACE
 PW_GRID|   Distribution                         Average         Max         Min
 PW_GRID|   G-Vectors                             2109.4        2475        1725
 PW_GRID|   G-Rays                                  28.1          33          23
 PW_GRID|   Real Space Points                     2109.4        2400        1728

 PW_GRID| Information for grid number                                          4
 PW_GRID| Number of the reference grid                                         1
 PW_GRID| Grid distributed over                                   128 processors
 PW_GRID| Real space group dimensions                                     8   16
 PW_GRID| the grid is blocked:                                                NO
 PW_GRID| Cutoff [a.u.]                                                     11.1
 PW_GRID| spherical cutoff:                                                   NO
 PW_GRID|   Bounds   1            -22      22                Points:          45
 PW_GRID|   Bounds   2            -22      22                Points:          45
 PW_GRID|   Bounds   3            -13      13                Points:          27
 PW_GRID| Volume element (a.u.^3)  0.2713         Volume (a.u.^3)     14833.7304
 PW_GRID| Grid span                                                    FULLSPACE
 PW_GRID|   Distribution                         Average         Max         Min
 PW_GRID|   G-Vectors                              427.1         585         270
 PW_GRID|   G-Rays                                   9.5          13           6
 PW_GRID|   Real Space Points                      427.1         486         270

 POISSON| Solver                                                        PERIODIC
 POISSON| Periodicity                                                        XYZ

 RS_GRID| Information for grid number                                          1
 RS_GRID|   Bounds   1           -112     112                Points:         225
 RS_GRID|   Bounds   2           -112     112                Points:         225
 RS_GRID|   Bounds   3            -72      71                Points:         144
 RS_GRID| Real space distribution over                                  8 groups
 RS_GRID| Real space distribution along direction                              1
 RS_GRID| Border size                                                         26
 RS_GRID| Real space distribution over                                 16 groups
 RS_GRID| Real space distribution along direction                              2
 RS_GRID| Border size                                                         26
 RS_GRID|   Distribution                         Average         Max         Min
 RS_GRID|   Planes                                  80.1          81          80
 RS_GRID|   Distribution                         Average         Max         Min
 RS_GRID|   Planes                                  66.1          67          66

 RS_GRID| Information for grid number                                          2
 RS_GRID|   Bounds   1            -67      67                Points:         135
 RS_GRID|   Bounds   2            -67      67                Points:         135
 RS_GRID|   Bounds   3            -40      40                Points:          81
 RS_GRID| Real space distribution over                                  8 groups
 RS_GRID| Real space distribution along direction                              1
 RS_GRID| Border size                                                         24
 RS_GRID| Real space distribution over                                 16 groups
 RS_GRID| Real space distribution along direction                              2
 RS_GRID| Border size                                                         24
 RS_GRID|   Distribution                         Average         Max         Min
 RS_GRID|   Planes                                  64.9          65          64
 RS_GRID|   Distribution                         Average         Max         Min
 RS_GRID|   Planes                                  56.4          57          56

 RS_GRID| Information for grid number                                          3
 RS_GRID|   Bounds   1            -37      37                Points:          75
 RS_GRID|   Bounds   2            -37      37                Points:          75
 RS_GRID|   Bounds   3            -24      23                Points:          48
 RS_GRID| Real space fully replicated
 RS_GRID| Group size                                                           1

 RS_GRID| Information for grid number                                          4
 RS_GRID|   Bounds   1            -22      22                Points:          45
 RS_GRID|   Bounds   2            -22      22                Points:          45
 RS_GRID|   Bounds   3            -13      13                Points:          27
 RS_GRID| Real space fully replicated
 RS_GRID| Group size                                                           1

 Spin 1

 Number of electrons:                                                        768
 Number of occupied orbitals:                                                768
 Number of molecular orbitals:                                               768

 Spin 2

 Number of electrons:                                                        768
 Number of occupied orbitals:                                                768
 Number of molecular orbitals:                                               768

 Number of orbital functions:                                               3328
 Number of independent orbital functions:                                   3328

 Extrapolation method: initial_guess

 *** WARNING in qs_initial_guess.F:306 :: User requested to restart the    ***
 *** wavefunction from the file named: tio2-RESTART.wfn. This file does    ***
 *** not exist. Please check the existence of the file or change properly  ***
 *** the value of the keyword WFN_RESTART_FILE_NAME. Calculation continues ***
 *** using ATOMIC GUESS.                                                   ***


 Atomic guess: The first density matrix is obtained in terms of atomic orbitals
               and electronic configurations assigned to each atomic kind

 Guess for atomic kind: Ti

 Electronic structure
    Total number of core electrons                                         10.00
    Total number of valence electrons                                      12.00
    Total number of electrons                                              22.00
    Multiplicity                                                   not specified
    S   [  2.00  2.00] 2.00  2.00
    P   [  6.00] 6.00
    D      2.00


 *******************************************************************************
                  Iteration          Convergence                     Energy [au]
 *******************************************************************************
                          1         2.59099                     -56.573945749309
                          2        0.737518                     -57.461623245624
                          3        0.123244E-01                 -57.676656834797
                          4        0.338536E-02                 -57.676690535970
                          5        0.252157E-03                 -57.676697146183
                          6        0.162704E-05                 -57.676697160103
                          7        0.846593E-06                 -57.676697160104

 Energy components [Hartree]           Total Energy ::          -57.676697160104
                                        Band Energy ::          -13.440549799540
                                     Kinetic Energy ::           25.008468428381
                                   Potential Energy ::          -82.685165588485
                                      Virial (-V/T) ::            3.306286661467
                                        Core Energy ::          -97.155838374470
                                          XC Energy ::           -6.919409696495
                                     Coulomb Energy ::           46.398550910862
                       Total Pseudopotential Energy ::         -122.259340742080
                       Local Pseudopotential Energy ::         -118.928992669456
                    Nonlocal Pseudopotential Energy ::           -3.330348072625
                                        Confinement ::            0.950339392289

 Orbital energies  State     L     Occupation   Energy[a.u.]          Energy[eV]

                       1     0          2.000      -2.312566          -62.928123
                       2     0          2.000      -0.123060           -3.348633

                       1     1          6.000      -1.385567          -37.703193

                       1     2          2.000      -0.127948           -3.481643


 Total Electron Density at R=0:                                         0.004726

 Guess for atomic kind: O

 Electronic structure
    Total number of core electrons                                          2.00
    Total number of valence electrons                                       6.00
    Total number of electrons                                               8.00
    Multiplicity                                                   not specified
    S   [  2.00] 2.00
    P      4.00


 *******************************************************************************
                  Iteration          Convergence                     Energy [au]
 *******************************************************************************
                          1        0.702811                     -15.577904332270
                          2        0.612408                     -15.588447180504
                          3        0.955344E-02                 -15.655871208406
                          4        0.223754E-02                 -15.655885053552
                          5        0.157183E-02                 -15.655885461027
                          6        0.124953E-02                 -15.655885607150
                          7        0.312011E-06                 -15.655885858066

 Energy components [Hartree]           Total Energy ::          -15.655885858066
                                        Band Energy ::           -2.983128125584
                                     Kinetic Energy ::           11.754765134683
                                   Potential Energy ::          -27.410650992749
                                      Virial (-V/T) ::            2.331875684345
                                        Core Energy ::          -26.153522949072
                                          XC Energy ::           -3.157392363346
                                     Coulomb Energy ::           13.655029454351
                       Total Pseudopotential Energy ::          -37.943026860963
                       Local Pseudopotential Energy ::          -39.220419683052
                    Nonlocal Pseudopotential Energy ::            1.277392822089
                                        Confinement ::            0.347387772086

 Orbital energies  State     L     Occupation   Energy[a.u.]          Energy[eV]

                       1     0          2.000      -0.861522          -23.443215

                       1     1          4.000      -0.315021           -8.572154


 Total Electron Density at R=0:                                         0.000093

 Spin 1
 Re-scaling the density matrix to get the right number of electrons for spin 1
                  # Electrons              Trace(P)               Scaling factor
                          768               768.001                        1.000

 Spin 2
 Re-scaling the density matrix to get the right number of electrons for spin 2
                  # Electrons              Trace(P)               Scaling factor
                          768               768.001                        1.000


 SCF WAVEFUNCTION OPTIMIZATION

  ----------------------------------- OT ---------------------------------------
  Minimizer      : DIIS                : direct inversion
                                         in the iterative subspace
                                         using   7 DIIS vectors
                                         safer DIIS on
  Preconditioner : FULL_SINGLE_INVERSE : inversion of 
                                         H + eS - 2*(Sc)(c^T*H*c+const)(Sc)^T
  Precond_solver : DEFAULT
  stepsize       :    0.08000000                  energy_gap     :    0.08000000
  eps_taylor     :   0.10000E-15                  max_taylor     :             4
  ----------------------------------- OT ---------------------------------------

  Step     Update method      Time    Convergence         Total energy    Change
  ------------------------------------------------------------------------------
     1 OT DIIS     0.80E-01    2.2     0.01005273     -5657.7802789614 -5.66E+03
     2 OT DIIS     0.80E-01    1.5     0.00725641     -5692.7097291840 -3.49E+01
     3 OT DIIS     0.80E-01    1.5     0.00471097     -5724.5671329304 -3.19E+01
     4 OT DIIS     0.80E-01    1.5     0.00369406     -5734.9987656945 -1.04E+01
     5 OT DIIS     0.80E-01    1.5     0.00269913     -5746.7293760977 -1.17E+01
     6 OT DIIS     0.80E-01    1.5     0.00221646     -5753.7832364725 -7.05E+00
     7 OT DIIS     0.80E-01    1.5     0.00185035     -5760.0700230605 -6.29E+00
     8 OT DIIS     0.80E-01    1.5     0.00148385     -5766.0003718423 -5.93E+00
     9 OT DIIS     0.80E-01    1.6     0.00128232     -5769.6538507006 -3.65E+00
    10 OT DIIS     0.80E-01    1.5     0.00099936     -5772.9698282748 -3.32E+00
    11 OT DIIS     0.80E-01    1.5     0.00091070     -5773.7977303605 -8.28E-01
    12 OT DIIS     0.80E-01    1.5     0.00073113     -5775.6810695348 -1.88E+00
    13 OT DIIS     0.80E-01    1.5     0.00060026     -5776.9739806402 -1.29E+00
    14 OT DIIS     0.80E-01    1.5     0.00049373     -5777.9298682584 -9.56E-01
    15 OT DIIS     0.80E-01    1.5     0.00044416     -5778.3821265266 -4.52E-01
    16 OT DIIS     0.80E-01    1.5     0.00036844     -5779.0052322815 -6.23E-01
    17 OT DIIS     0.80E-01    1.5     0.00037429     -5779.0049525713  2.80E-04
    18 OT DIIS     0.80E-01    1.5     0.00030886     -5779.3882441062 -3.83E-01
    19 OT DIIS     0.80E-01    1.5     0.00027939     -5779.6360338624 -2.48E-01
    20 OT DIIS     0.80E-01    1.5     0.00026211     -5779.7420636040 -1.06E-01
    21 OT DIIS     0.80E-01    1.5     0.00023096     -5779.9854579956 -2.43E-01
    22 OT SD       0.80E-01    1.5     0.00022976     -5780.1103896622 -1.25E-01
    23 OT DIIS     0.80E-01    1.5     0.00022097     -5780.1315049026 -2.11E-02
    24 OT DIIS     0.80E-01    1.5     0.00019585     -5780.2982250694 -1.67E-01
    25 OT DIIS     0.80E-01    1.5     0.00019344     -5780.3396149344 -4.14E-02
    26 OT DIIS     0.80E-01    1.5     0.00017424     -5780.4540403355 -1.14E-01
    27 OT DIIS     0.80E-01    1.5     0.00014992     -5780.5901563034 -1.36E-01
    28 OT DIIS     0.80E-01    1.5     0.00013153     -5780.6862679005 -9.61E-02
    29 OT DIIS     0.80E-01    1.5     0.00013279     -5780.6999302237 -1.37E-02
    30 OT DIIS     0.80E-01    1.5     0.00012022     -5780.7270953508 -2.72E-02
    31 OT DIIS     0.80E-01    1.5     0.00010745     -5780.7753711898 -4.83E-02
    32 OT DIIS     0.80E-01    1.5     0.00009634     -5780.8074846904 -3.21E-02
    33 OT DIIS     0.80E-01    1.5     0.00008457     -5780.8505980284 -4.31E-02
    34 OT DIIS     0.80E-01    1.5     0.00008068     -5780.8669557300 -1.64E-02
    35 OT SD       0.80E-01    1.5     0.00008249     -5780.8887701700 -2.18E-02
    36 OT DIIS     0.80E-01    1.5     0.00007951     -5780.8914942215 -2.72E-03
    37 OT DIIS     0.80E-01    1.5     0.00007358     -5780.9074127340 -1.59E-02
    38 OT DIIS     0.80E-01    1.5     0.00007133     -5780.9287451610 -2.13E-02
    39 OT DIIS     0.80E-01    1.5     0.00007086     -5780.9339831369 -5.24E-03
    40 OT DIIS     0.80E-01    1.5     0.00007054     -5780.9459994019 -1.20E-02

  Leaving inner SCF loop after reaching    40 steps.


  Electronic density on regular grids:      -1535.9999999999        0.0000000001
  Core density on regular grids:             1535.9999999995       -0.0000000005
  Total charge density on r-space grids:       -0.0000000004
  Total charge density g-space grids:          -0.0000000004

  Overlap energy of the core charge distribution:               0.00000000000393
  Self energy of the core charge distribution:             -12156.89556134359555
  Core Hamiltonian energy:                                   3265.29522071564224
  Hartree energy:                                            4026.30044396656831
  Exchange-correlation energy:                               -923.45572243579966

  DFT+U energy:                                                 7.80961969525551

  Total energy:                                             -5780.94599940192438

  outer SCF iter =    1 RMS gradient =   0.71E-04 energy =      -5780.9459994019

  ----------------------------------- OT ---------------------------------------
  Minimizer      : DIIS                : direct inversion
                                         in the iterative subspace
                                         using   7 DIIS vectors
                                         safer DIIS on
  Preconditioner : FULL_SINGLE_INVERSE : inversion of 
                                         H + eS - 2*(Sc)(c^T*H*c+const)(Sc)^T
  Precond_solver : DEFAULT
  stepsize       :    0.08000000                  energy_gap     :    0.08000000
  eps_taylor     :   0.10000E-15                  max_taylor     :             4
  ----------------------------------- OT ---------------------------------------

[...]
 flops    26 x    13 x    32          99237232640       0.0%    100.0%      0.0%     
 flops    13 x    26 x    32          99237232640       0.0%    100.0%      0.0%     
 flops    26 x    26 x    32         100787814400       0.0%    100.0%      0.0%     
 flops    96 x    32 x    32         117172076544       0.0%    100.0%      0.0%     
 flops    13 x    13 x    64         194117607424       0.0%    100.0%      0.0%     
 flops    26 x    13 x    64         198474465280       0.0%    100.0%      0.0%     
 flops    13 x    26 x    64         198474465280       0.0%    100.0%      0.0%     
 flops    26 x    26 x    64         201575628800       0.0%    100.0%      0.0%     
 flops    96 x    64 x    32         234344153088       0.0%    100.0%      0.0%     
 flops    96 x    32 x    64         234344153088       0.0%    100.0%      0.0%     
 flops   416 x    32 x    32         288769441792       0.0%    100.0%      0.0%     
 flops    96 x    64 x    64         468688306176       0.0%    100.0%      0.0%     
 flops   416 x    64 x    32         577538883584       0.0%    100.0%      0.0%     
 flops   416 x    32 x    64         577538883584       0.0%    100.0%      0.0%     
 flops    96 x    32 x   208         705429504000       0.0%    100.0%      0.0%     
 flops   416 x    32 x   208         802403909632       0.0%    100.0%      0.0%     
 flops   416 x    64 x    64        1155077767168       0.0%    100.0%      0.0%     
 flops    13 x    32 x    13        1216200360960       0.0%    100.0%      0.0%     
 flops    26 x    32 x    26        1254642155520       0.0%    100.0%      0.0%     
 flops    26 x    32 x    13        1254642155520       0.0%    100.0%      0.0%     
 flops    13 x    32 x    26        1254642155520       0.0%    100.0%      0.0%     
 flops    96 x    64 x   208        1412004052992       0.0%    100.0%      0.0%     
 flops   416 x    64 x   208        1610478518272       0.0%    100.0%      0.0%     
 flops inhomo. stacks                     2610452     100.0%      0.0%      0.0%
 flops total                        14.391029E+12       0.0%    100.0%      0.0%
 flops max/rank                    148.559649E+09       0.0%    100.0%      0.0%
 matmuls inhomo. stacks                      3786     100.0%      0.0%      0.0%
 matmuls total                          313731358       0.0%    100.0%      0.0%
 number of processed stacks               8898154       0.0%    100.0%      0.0%
 average stack size                                     1.0      35.3       0.0
 marketing flops                    15.660485E+12
 -------------------------------------------------------------------------------
 # multiplications                           4805
 max memory usage/rank             347.168768E+06
 # max total images/rank                        2
 # max 3D layers                                1
 # MPI messages exchanged                17836160
 MPI messages size (bytes):
  total size                         1.783241E+12
  min size                           0.000000E+00
  max size                         692.224000E+03
  average size                      99.978984E+03
 MPI breakdown and total messages size (bytes):
             size <=      128             5636128                   136576
       128 < size <=     8192             1017216               7104236768
      8192 < size <=    32768             3644384              82854534896
     32768 < size <=   131072             4038272             308676579328
    131072 < size <=  4194304             3500160            1384626200880
   4194304 < size <= 16777216                   0                        0
  16777216 < size                               0                        0
 -------------------------------------------------------------------------------

 *** WARNING in dbcsr_mm.F:301 :: Using a non-square number of MPI ranks ***
 *** might lead to poor performance. Used ranks: 128 Suggested: 121 256  ***

 -------------------------------------------------------------------------------
 -                                                                             -
 -                      DBCSR MESSAGE PASSING PERFORMANCE                      -
 -                                                                             -
 -------------------------------------------------------------------------------
 ROUTINE             CALLS      AVE VOLUME [Bytes]
 MP_Bcast               50                     12.
 MP_Allreduce        25128                     26.
 MP_Alltoall         17323                  29562.
 MP_ISend           302688                  49577.
 MP_IRecv           302180                  49098.
 -------------------------------------------------------------------------------

 -------------------------------------------------------------------------------
 -                                                                             -
 -                                DBM STATISTICS                               -
 -                                                                             -
 -------------------------------------------------------------------------------
    M  x    N  x    K                                          COUNT     PERCENT
 -------------------------------------------------------------------------------

 -------------------------------------------------------------------------------
 -                                                                             -
 -                                GRID STATISTICS                              -
 -                                                                             -
 -------------------------------------------------------------------------------
 LP    KERNEL             BACKEND                              COUNT     PERCENT
 5     collocate ortho    CPU                               21326024      25.41%
 5     integrate ortho    CPU                               21012406      25.04%
 6     collocate ortho    CPU                               10900128      12.99%
 6     integrate ortho    CPU                               10739832      12.80%
 4     collocate ortho    CPU                                9732024      11.60%
 4     integrate ortho    CPU                                9588906      11.43%
 0     integrate general  CPU                                 393216       0.47%
 0     collocate general  CPU                                 221184       0.26%
 2     collocate ortho    CPU                                   2560       0.00%
 3     collocate ortho    CPU                                   1536       0.00%
 -------------------------------------------------------------------------------

 MEMORY| Estimated peak process memory [MiB]                                 332

 -------------------------------------------------------------------------------
 ----                             MULTIGRID INFO                            ----
 -------------------------------------------------------------------------------
 count for grid        1:        1287114          cutoff [a.u.]          300.00
 count for grid        2:         980965          cutoff [a.u.]          100.00
 count for grid        3:         793927          cutoff [a.u.]           33.33
 count for grid        4:         536884          cutoff [a.u.]           11.11
 total gridlevel count  :        3598890

 -------------------------------------------------------------------------------
 -                                                                             -
 -                         MESSAGE PASSING PERFORMANCE                         -
 -                                                                             -
 -------------------------------------------------------------------------------

 ROUTINE             CALLS      AVE VOLUME [Bytes]
 MP_Group                4
 MP_Bcast             8511                  19402.
 MP_Allreduce        22681                    453.
 MP_Sync               806
 MP_Alltoall          2802                2069531.
 MP_SendRecv         35560                  11544.
 MP_ISendRecv        34036                  11544.
 MP_Wait             50580
 MP_comm_split         254
 MP_ISend            29984                  77955.
 MP_IRecv            29924                  78108.
 MP_Write_All            6                 355816.
 -------------------------------------------------------------------------------


 -------------------------------------------------------------------------------
 -                                                                             -
 -                           R E F E R E N C E S                               -
 -                                                                             -
 -------------------------------------------------------------------------------
 
 CP2K version 2024.3, the CP2K developers group (2024).
 CP2K is freely available from https://www.cp2k.org/ .
 
 T. D. Kuehne, M. Iannuzzi, M. Del Ben, V. V. Rybkin, P. Seewald, F. Stein, T. 
 Laino, R. Z. Khaliullin, O. Schuett, F. Schiffmann, D. Golze, J. Wilhelm, S. 
 Chulkov, M. H. Bani-Hashemian, V. Weber, U. Borstnik, M. Taillefumier, A. S. 
 Jakobovits, A. Lazzaro, H. Pabst, T. Mueller, R. Schade, M. Guidon, S. 
 Andermatt, N. Holmberg, G. K. Schenter, A. Hehn, A. Bussy, F. Belleflamme, G. 
 Tabacchi, A. Gloess, M. Lass, I. Bethune, C. J. Mundy, C. Plessl, M. Watkins, 
 J. VandeVondele, M. Krack, J. Hutter.
 J. Chem. Phys. 152, 194103 (2020).
 CP2K: An electronic structure and molecular dynamics software package - 
 Quickstep: Efficient and accurate electronic structure calculations.
 https://doi.org/10.1063/5.0007045

 O. Schuett, P. Messmer, J. Hutter, J. VandeVondele.
 Electronic Structure Calculations on Graphics Processing Units, 173-190 (2016).
 GPU-Accelerated Sparse Matrix-Matrix Multiplication for Linear Scaling Density 
 Functional Theory.
 https://doi.org/10.1002/9781118670712.ch8

 A. Heinecke, G. Henry, M. Hutchinson, H. Pabst.
 Proceedings of Intl. Supercomputing Conference, 981-991 (2016).
 LIBXSMM: Accelerating Small Matrix Multiplications by Runtime Code Generation.
 https://doi.org/10.1109/SC.2016.83

 J. Hutter, M. Iannuzzi, F. Schiffmann, J. VandeVondele.
 WIREs Comput Mol Sci. 4, 15-25 (2014).
 CP2K: atomistic simulations of condensed matter systems.
 https://doi.org/10.1002/wcms.1159

 U. Borstnik, J. VandeVondele, V. Weber, J. Hutter.
 Parallel Comput. 40, 47-58 (2014).
 Sparse matrix multiplication: The distributed block-compressed sparse row 
 library.
 https://doi.org/10.1016/j.parco.2014.03.012

 A. Marek, V. Blum, R. Johanni, V. Havu, B. Lang, T. Auckenthaler, A. Heinecke, 
 H. Bungartz, H. Lederer.
 J. Phys. Condens. Matter 26, 213201 (2014).
 The ELPA library: scalable parallel eigenvalue solutions for electronic 
 structure theory and computational science.
 https://doi.org/10.1088/0953-8984/26/21/213201

 J. VandeVondele, J. Hutter.
 J. Chem. Phys. 127, 114105 (2007).
 Gaussian basis sets for accurate calculations on molecular systems in gas and 
 condensed phases.
 https://doi.org/10.1063/1.2770708

 J. VandeVondele, M. Krack, F. Mohamed, M. Parrinello, T. Chassaing, J. Hutter.
 Comput. Phys. Commun. 167, 103-128 (2005).
 QUICKSTEP: Fast and accurate density functional calculations using a mixed 
 Gaussian and plane waves approach.
 https://doi.org/10.1016/j.cpc.2004.12.014

 M. Krack.
 Theor. Chem. Acc. 114, 145-152 (2005).
 Pseudopotentials for H to Kr optimized for gradient-corrected 
 exchange-correlation functionals.
 https://doi.org/10.1007/s00214-005-0655-y

 M. Frigo, S. G. Johnson.
 Proc. IEEE 93, 216-231 (2005).
 The design and implementation of FFTW3.
 https://doi.org/10.1109/JPROC.2004.840301

 J. VandeVondele, J. Hutter.
 J. Chem. Phys. 118, 4365-4369 (2003).
 An efficient orbital transformation method for electronic structure 
 calculations.
 https://doi.org/10.1063/1.1543154

 C. Hartwigsen, S. Goedecker, J. Hutter.
 Phys. Rev. B 58, 3641-3662 (1998).
 Relativistic separable dual-space Gaussian pseudopotentials from H to Rn.
 https://doi.org/10.1103/PhysRevB.58.3641

 S. L. Dudarev, G. A. Botton, S. Y. Savrasov, C. J. Humphreys, A. P. Sutton.
 Phys. Rev. B 57, 1505-1509 (1998).
 Electron-energy-loss spectra and the structural stability of nickel oxide: An 
 LSDA+U study.
 https://doi.org/10.1103/PhysRevB.57.1505

 G. Lippert, J. Hutter, M. Parrinello.
 Mol. Phys. 92, 477-487 (1997).
 A hybrid Gaussian and plane wave density functional scheme.
 https://doi.org/10.1080/002689797170220

 S. L. Dudarev, D. N. Manh, A. P. Sutton.
 Philos. Mag. B 75, 613-628 (1997).
 Effect of Mott-Hubbard correlations on the electronic structure and structural 
 stability of uranium dioxide.
 https://doi.org/10.1080/13642819708202343

 S. Goedecker, M. Teter, J. Hutter.
 Phys. Rev. B 54, 1703-1710 (1996).
 Separable dual-space Gaussian pseudopotentials.
 https://doi.org/10.1103/PhysRevB.54.1703

 J. P. Perdew, K. Burke, M. Ernzerhof.
 Phys. Rev. Lett. 77, 3865-3868 (1996).
 Generalized gradient approximation made simple.
 https://doi.org/10.1103/PhysRevLett.77.3865


 -------------------------------------------------------------------------------
 -                                                                             -
 -                                T I M I N G                                  -
 -                                                                             -
 -------------------------------------------------------------------------------
 SUBROUTINE                       CALLS  ASD         SELF TIME        TOTAL TIME
                                MAXIMUM       AVERAGE  MAXIMUM  AVERAGE  MAXIMUM
 CP2K                                 1  1.0    0.131    0.142  112.871  112.875
 qs_energies                          1  2.0    0.006    0.010  111.868  111.874
 scf_env_do_scf                       1  3.0    0.005    0.009  100.377  100.380
 scf_env_do_scf_inner_loop           67  4.0    0.008    0.022   97.200   97.265
 qs_ks_update_qs_env                 69  5.0    0.001    0.002   47.890   48.007
 rebuild_ks_matrix                   67  6.0    0.002    0.003   47.796   47.914
 qs_ks_build_kohn_sham_matrix        67  7.0    0.019    0.024   47.794   47.911
 sum_up_and_integrate                67  8.0    0.005    0.007   30.153   30.168
 integrate_v_rspace                 134  9.0    0.006    0.009   30.068   30.109
 qs_rho_update_rho_low               68  5.0    0.001    0.002   27.920   27.931
 calculate_rho_elec                 136  6.0    0.050    0.058   27.919   27.930
 dbcsr_multiply_generic            4805  9.2    0.178    0.186   23.184   23.807
 qs_scf_new_mos                      67  5.0    0.000    0.001   23.054   23.227
 qs_scf_loop_do_ot                   67  6.0    0.001    0.001   23.053   23.227
 grid_integrate_task_list           134 10.0   21.412   22.565   21.412   22.565
 ot_scf_mini                         67  7.0    0.003    0.004   21.582   21.706
 grid_collocate_task_list           136  7.0   20.043   21.127   20.043   21.127
 multiply_cannon                   4805 10.2    0.749    0.792   15.381   17.836
 fft_wrap_pw1pw2                   2242 10.3    0.044    0.055   14.807   16.656
 multiply_cannon_loop              4805 11.2    0.342    0.361   13.375   15.687
 fft_wrap_pw1pw2_300               1420 11.8    0.561    0.629   13.753   15.638
 qs_vxc_create                       67  8.0    0.002    0.004   14.107   14.215
 xc_vxc_pw_create                    67  9.0    0.257    0.328   14.105   14.213
 fft3d_ps                          2242 12.3    4.429    4.898   11.659   13.838
 ot_mini                            197  6.7    0.007    0.011   11.973   12.134
 xc_pw_derive                       804 11.0    0.007    0.009    9.527   11.173
 multiply_cannon_multrec          76880 12.2    6.310   10.002    6.326   10.019
 mp_waitall_1                    575500 13.3    6.699    9.719    6.699    9.719
 qs_ot_get_p                        272  7.0    0.004    0.005    9.093    9.417
 mp_alltoall_z22v                  2242 14.3    6.002    9.351    6.002    9.351
 scf_post_calculation_gpw             1  3.0    0.005    0.008    9.120    9.125
 qs_ot_get_derivative               200  8.3    0.001    0.002    8.652    8.744
 multiply_cannon_metrocomm3       76880 12.2    0.186    0.193    4.615    8.265
 density_rs2pw                      136  7.0    0.011    0.013    7.113    7.970
 xc_rho_set_and_dset_create          67 10.0    0.230    0.365    7.316    7.733
 xc_pw_divergence                   134 10.0    0.003    0.004    6.307    7.608
 qs_ot_p2m_diag                     250  8.0    0.057    0.076    6.907    6.950
 potential_pw2rs                    134 10.0    0.011    0.013    6.836    6.885
 cp_dbcsr_syevd                     250  9.0    0.075    0.084    5.874    5.878
 qs_ot_get_derivative_diag          182  9.4    0.004    0.005    5.701    5.788
 yz_to_x                            817 13.4    0.347    0.469    3.422    5.645
 cp_fm_diag_elpa                    130 10.9    0.001    0.003    5.489    5.505
 cp_fm_redistribute_end             254 11.0    2.764    5.448    2.782    5.460
 cp_fm_diag_elpa_base               130 11.9    2.623    5.256    2.636    5.292
 transfer_pw2rs                     538 11.0    0.007    0.008    5.027    5.055
 make_lumo_gpw                        1  4.0    0.001    0.002    5.043    5.045
 transfer_rs2pw                     562  7.9    0.009    0.014    4.260    5.028
 ot_eigensolver                       2  5.0    0.003    0.004    5.024    5.025
 make_m2s                          9610 10.2    0.132    0.144    4.736    5.002
 mp_waitany                       13240 11.4    3.618    4.740    3.618    4.740
 x_to_yz                            877 13.7    0.578    0.776    3.466    4.391
 make_images                       9610 11.2    0.257    0.278    3.833    4.054
 transfer_pw2rs_300                 136 11.9    1.715    1.817    3.474    3.663
 mp_sum_l                         23312 10.2    2.099    3.645    2.099    3.645
 transfer_rs2pw_300                 142  8.9    0.965    1.337    2.675    3.510
 mp_alltoall_d11v                  3861 11.6    2.536    3.377    2.536    3.377
 write_available_results              1  4.0    0.003    0.004    3.149    3.153
 init_scf_loop                        2  4.0    0.003    0.005    3.134    3.140
 write_mo_free_results                1  5.0    0.138    0.144    3.106    3.109
 apply_preconditioner_dbcsr         208  9.3    0.001    0.001    2.629    2.970
 apply_single                       208 10.3    0.001    0.001    2.628    2.969
 ot_diis_step                        67  9.0    0.015    0.017    2.742    2.744
 rs_gather_matrices                 134 10.0    0.061    0.079    1.814    2.640
 mp_irecv_dv                     160337 13.2    0.791    2.513    0.791    2.513
 multiply_cannon_metrocomm4       72075 12.2    0.184    0.188    0.881    2.489
 xc_functional_eval                  67 11.0    0.001    0.002    2.150    2.476
 pbe_lsd_eval                        67 12.0    2.148    2.475    2.148    2.475
 -------------------------------------------------------------------------------

 The number of warnings for this run is : 3
 
 -------------------------------------------------------------------------------
  **** **** ******  **  PROGRAM ENDED AT                 2025-06-22 05:27:28.541
 ***** ** ***  *** **   PROGRAM RAN ON                                 nid005727
 **    ****   ******    PROGRAM RAN BY                                    cahart
 ***** **    ** ** **   PROGRAM PROCESS ID                                157476
  **** **  *******  **  PROGRAM STOPPED IN /mnt/lustre/a2fs-work2/work/e05/e05/c
                                           ahart/postdoc2/work/group/tio2/anatas
                                           e/cell-441/geo-opt/mp-390/neutral-fro
                                           m-hole/pbe-u-o/u-2.8
