 DBCSR| CPU Multiplication driver                                           XSMM (U)
 DBCSR| Multrec recursion limit                                              512 (U)
 DBCSR| Multiplication stack size                                           1000 (D)
 DBCSR| Maximum elements for images                                    UNLIMITED (U)
 DBCSR| Multiplicative factor virtual images                                   1 (U)
 DBCSR| Use multiplication densification                                       T (D)
 DBCSR| Multiplication size stacks                                             3 (U)
 DBCSR| Use memory pool for CPU allocation                                     F (U)
 DBCSR| Number of 3D layers                                               SINGLE (U)
 DBCSR| Use MPI memory allocation                                              F (U)
 DBCSR| Use RMA algorithm                                                      F (U)
 DBCSR| Use Communication thread                                               T (U)
 DBCSR| Communication thread load                                             87 (D)
 DBCSR| MPI: My process id                                                     0
 DBCSR| MPI: Number of processes                                             128
 DBCSR| OMP: Current number of threads                                         1
 DBCSR| OMP: Max number of threads                                             1
 DBCSR| Split modifier for TAS multiplication algorithm                  1.0E+00 (U)


  **** **** ******  **  PROGRAM STARTED AT               2025-06-18 16:02:36.398
 ***** ** ***  *** **   PROGRAM STARTED ON                             nid001159
 **    ****   ******    PROGRAM STARTED BY                                cahart
 ***** **    ** ** **   PROGRAM PROCESS ID                                181151
  **** **  *******  **  PROGRAM STARTED IN /mnt/lustre/a2fs-work2/work/e05/e05/c
                                           ahart/postdoc2/work/group/tio2/anatas
                                           e/cell-441/geo-opt/mp-390/hole/from-m
                                           d-hole/pbe-u-o/u-6.5

 CP2K| version string:                                       CP2K version 2024.3
 CP2K| source code revision number:                                  git:6712648
 CP2K| cp2kflags: omp libint fftw3 libxc libgrpp elpa parallel scalapack cosma x
 CP2K|            smm plumed2 spglib mkl sirius libvori libbqb libvdwxc hdf5
 CP2K| is freely available from                            https://www.cp2k.org/
 CP2K| Program compiled at                       Thu 12 Sep 2024 10:20:47 AM BST
 CP2K| Program compiled on                                                  ln04
 CP2K| Program compiled for                                                local
 CP2K| Data directory path    /mnt/lustre/a2fs-work1/work/y07/shared/apps/core/c
 CP2K| Input file name                                                 input.inp

 GLOBAL| Force Environment number                                              1
 GLOBAL| Basis set file name                                        BASIS_MOLOPT
 GLOBAL| Potential file name                                      GTH_POTENTIALS
 GLOBAL| MM Potential file name                                     MM_POTENTIAL
 GLOBAL| Coordinate file name                                         system.xyz
 GLOBAL| Method name                                                        CP2K
 GLOBAL| Project name                                                       tio2
 GLOBAL| Run type                                                        GEO_OPT
 GLOBAL| FFT library                                                       FFTW3
 GLOBAL| Diagonalization library                                            ELPA
 GLOBAL| DGEMM library                                                      BLAS
 GLOBAL| Minimum number of eigenvectors for ELPA usage                        16
 GLOBAL| Orthonormality check for eigenvectors                          DISABLED
 GLOBAL| Matrix multiplication library                                     COSMA
 GLOBAL| All-to-all communication in single precision                          F
 GLOBAL| FFTs using library dependent lengths                                  F
 GLOBAL| Grid backend                                                       AUTO
 GLOBAL| Global print level                                               MEDIUM
 GLOBAL| MPI I/O enabled                                                       T
 GLOBAL| Total number of message passing processes                           128
 GLOBAL| Number of threads for this process                                    1
 GLOBAL| This output is from process                                           0
 GLOBAL| Stack size for threads created by OpenMP (OMP_STACKSIZE)        default
 GLOBAL| CPU model name                          AMD EPYC 7742 64-Core Processor
 GLOBAL| CPUID                                                              1002

 MEMORY| system memory details [Kb]
 MEMORY|                        rank 0           min           max       average
 MEMORY| MemTotal            263341976     263341976     263341976     263341976
 MEMORY| MemFree             235175360     235173848     235175360     235175064
 MEMORY| Buffers                     0             0             0             0
 MEMORY| Cached                1762084       1762084       1762400       1762148
 MEMORY| Slab                  5225808       5225808       5225868       5225820
 MEMORY| SReclaimable           118340        118340        118340        118340
 MEMORY| MemLikelyFree       237055784     237054588     237056100     237055552


 *** Fundamental physical constants (SI units) ***

 *** Literature: B. J. Mohr and B. N. Taylor,
 ***             CODATA recommended values of the fundamental physical
 ***             constants: 2006, Web Version 5.1
 ***             http://physics.nist.gov/constants

 Speed of light in vacuum [m/s]                             2.99792458000000E+08
 Magnetic constant or permeability of vacuum [N/A**2]       1.25663706143592E-06
 Electric constant or permittivity of vacuum [F/m]          8.85418781762039E-12
 Planck constant (h) [J*s]                                  6.62606896000000E-34
 Planck constant (h-bar) [J*s]                              1.05457162825177E-34
 Elementary charge [C]                                      1.60217648700000E-19
 Electron mass [kg]                                         9.10938215000000E-31
 Electron g factor [ ]                                     -2.00231930436220E+00
 Proton mass [kg]                                           1.67262163700000E-27
 Fine-structure constant                                    7.29735253760000E-03
 Rydberg constant [1/m]                                     1.09737315685270E+07
 Avogadro constant [1/mol]                                  6.02214179000000E+23
 Boltzmann constant [J/K]                                   1.38065040000000E-23
 Atomic mass unit [kg]                                      1.66053878200000E-27
 Bohr radius [m]                                            5.29177208590000E-11

 *** Conversion factors ***

 [u] -> [a.u.]                                              1.82288848426455E+03
 [Angstrom] -> [Bohr] = [a.u.]                              1.88972613288564E+00
 [a.u.] = [Bohr] -> [Angstrom]                              5.29177208590000E-01
 [a.u.] -> [s]                                              2.41888432650478E-17
 [a.u.] -> [fs]                                             2.41888432650478E-02
 [a.u.] -> [J]                                              4.35974393937059E-18
 [a.u.] -> [N]                                              8.23872205491840E-08
 [a.u.] -> [K]                                              3.15774647902944E+05
 [a.u.] -> [kJ/mol]                                         2.62549961709828E+03
 [a.u.] -> [kcal/mol]                                       6.27509468713739E+02
 [a.u.] -> [Pa]                                             2.94210107994716E+13
 [a.u.] -> [bar]                                            2.94210107994716E+08
 [a.u.] -> [atm]                                            2.90362800883016E+08
 [a.u.] -> [eV]                                             2.72113838565563E+01
 [a.u.] -> [Hz]                                             6.57968392072181E+15
 [a.u.] -> [1/cm] (wave numbers)                            2.19474631370540E+05
 [a.u./Bohr**2] -> [1/cm]                                   5.14048714338585E+03
 

 CELL_TOP| Volume [angstrom^3]:                                      2198.132028
 CELL_TOP| Vector a [angstrom    15.120     0.000     0.000   |a| =    15.120000
 CELL_TOP| Vector b [angstrom     0.000    15.120     0.000   |b| =    15.120000
 CELL_TOP| Vector c [angstrom     0.000     0.000     9.615   |c| =     9.615020
 CELL_TOP| Angle (b,c), alpha [degree]:                                90.000000
 CELL_TOP| Angle (a,c), beta  [degree]:                                90.000000
 CELL_TOP| Angle (a,b), gamma [degree]:                                90.000000
 CELL_TOP| Requested initial symmetry:                       MONOCLINIC_GAMMA_AB
 CELL_TOP| Numerically orthorhombic:                                         YES
 CELL_TOP| Periodicity                                                       XYZ

 GENERATE|  Preliminary Number of Bonds generated:                             0
 GENERATE|  Achieved consistency in connectivity generation.

 CELL| Volume [angstrom^3]:                                          2198.132028
 CELL| Vector a [angstrom]:      15.120     0.000     0.000   |a| =    15.120000
 CELL| Vector b [angstrom]:       0.000    15.120     0.000   |b| =    15.120000
 CELL| Vector c [angstrom]:       0.000     0.000     9.615   |c| =     9.615020
 CELL| Angle (b,c), alpha [degree]:                                    90.000000
 CELL| Angle (a,c), beta  [degree]:                                    90.000000
 CELL| Angle (a,b), gamma [degree]:                                    90.000000
 CELL| Requested initial symmetry:                           MONOCLINIC_GAMMA_AB
 CELL| Numerically orthorhombic:                                             YES
 CELL| Periodicity                                                           XYZ

 CELL_REF| Volume [angstrom^3]:                                      2198.132028
 CELL_REF| Vector a [angstrom    15.120     0.000     0.000   |a| =    15.120000
 CELL_REF| Vector b [angstrom     0.000    15.120     0.000   |b| =    15.120000
 CELL_REF| Vector c [angstrom     0.000     0.000     9.615   |c| =     9.615020
 CELL_REF| Angle (b,c), alpha [degree]:                                90.000000
 CELL_REF| Angle (a,c), beta  [degree]:                                90.000000
 CELL_REF| Angle (a,b), gamma [degree]:                                90.000000
 CELL_REF| Requested initial symmetry:                       MONOCLINIC_GAMMA_AB
 CELL_REF| Numerically orthorhombic:                                         YES
 CELL_REF| Periodicity                                                       XYZ

 *******************************************************************************
 *******************************************************************************
 **                                                                           **
 **     #####                         ##              ##                      **
 **    ##   ##            ##          ##              ##                      **
 **   ##     ##                       ##            ######                    **
 **   ##     ##  ##   ##  ##   #####  ##  ##   ####   ##    #####    #####    **
 **   ##     ##  ##   ##  ##  ##      ## ##   ##      ##   ##   ##  ##   ##   **
 **   ##  ## ##  ##   ##  ##  ##      ####     ###    ##   ######   ######    **
 **    ##  ###   ##   ##  ##  ##      ## ##      ##   ##   ##       ##        **
 **     #######   #####   ##   #####  ##  ##  ####    ##    #####   ##        **
 **           ##                                                    ##        **
 **                                                                           **
 **                                                ... make the atoms dance   **
 **                                                                           **
 **            Copyright (C) by CP2K developers group (2000-2024)             **
 **                      J. Chem. Phys. 152, 194103 (2020)                    **
 **                                                                           **
 *******************************************************************************

 DFT| Spin unrestricted (spin-polarized) Kohn-Sham calculation               UKS
 DFT| Multiplicity                                                             2
 DFT| Number of spin states                                                    2
 DFT| Charge                                                                   1
 DFT| Self-interaction correction (SIC)                                       NO
 DFT| Cutoffs: density                                              1.000000E-10
 DFT|          gradient                                             1.000000E-10
 DFT|          tau                                                  1.000000E-10
 DFT|          cutoff_smoothing_range                               0.000000E+00
 DFT| XC density smoothing                                                  NONE
 DFT| XC derivatives                                                          PW

 DFT+U| Method                                                          MULLIKEN
 DFT+U| Check atomic kind information for details

 FUNCTIONAL| PBE:
 FUNCTIONAL| J.P.Perdew, K.Burke, M.Ernzerhof, Phys. Rev. Letter, vol. 77, n 18,
 FUNCTIONAL|  pp. 3865-3868, (1996) {spin polarized}                            


 QS| Method:                                                                 GPW
 QS| Density plane wave grid type                        NON-SPHERICAL FULLSPACE
 QS| Number of grid levels:                                                    4
 QS| Density cutoff [a.u.]:                                                300.0
 QS| Multi grid cutoff [a.u.]: 1) grid level                               300.0
 QS|                           2) grid level                               100.0
 QS|                           3) grid level                                33.3
 QS|                           4) grid level                                11.1
 QS| Grid level progression factor:                                          3.0
 QS| Relative density cutoff [a.u.]:                                        20.0
 QS| Interaction thresholds: eps_pgf_orb:                                1.0E-06
 QS|                         eps_filter_matrix:                          0.0E+00
 QS|                         eps_core_charge:                            1.0E-14
 QS|                         eps_rho_gspace:                             1.0E-12
 QS|                         eps_rho_rspace:                             1.0E-12
 QS|                         eps_gvg_rspace:                             1.0E-06
 QS|                         eps_ppl:                                    1.0E-02
 QS|                         eps_ppnl:                                   1.0E-08


 ATOMIC KIND INFORMATION

  1. Atomic kind: Ti                                    Number of atoms:      64

     Orbital Basis Set                                    DZVP-MOLOPT-SR-GTH-q12

       Number of orbital shell sets:                                           1
       Number of orbital shells:                                               8
       Number of primitive Cartesian functions:                                6
       Number of Cartesian basis functions:                                   31
       Number of spherical basis functions:                                   26
       Norm type:                                                              2

       Normalised Cartesian orbitals:

                        Set   Shell   Orbital            Exponent    Coefficient

                          1       1    2s                7.884570       0.015554
                                                         3.894698       0.963603
                                                         1.513589      -0.631435
                                                         0.596768      -0.343022
                                                         0.222222      -0.006534
                                                         0.077078       0.007652

                          1       2    3s                7.884570      -0.009340
                                                         3.894698       0.212624
                                                         1.513589      -0.258368
                                                         0.596768      -0.226206
                                                         0.222222       0.039438
                                                         0.077078       0.107179

                          1       3    4s                7.884570       0.276563
                                                         3.894698       0.105452
                                                         1.513589       0.085149
                                                         0.596768       0.882541
                                                         0.222222      -0.696223
                                                         0.077078       0.156638

                          1       4    3px               7.884570      -2.034794
                                                         3.894698       0.782008
                                                         1.513589       1.253903
                                                         0.596768       0.347823
                                                         0.222222       0.016778
                                                         0.077078      -0.000433
                          1       4    3py               7.884570      -2.034794
                                                         3.894698       0.782008
                                                         1.513589       1.253903
                                                         0.596768       0.347823
                                                         0.222222       0.016778
                                                         0.077078      -0.000433
                          1       4    3pz               7.884570      -2.034794
                                                         3.894698       0.782008
                                                         1.513589       1.253903
                                                         0.596768       0.347823
                                                         0.222222       0.016778
                                                         0.077078      -0.000433

                          1       5    4px               7.884570       0.376572
                                                         3.894698      -0.182875
                                                         1.513589      -0.474776
                                                         0.596768      -0.081757
                                                         0.222222       0.064432
                                                         0.077078       0.047279
                          1       5    4py               7.884570       0.376572
                                                         3.894698      -0.182875
                                                         1.513589      -0.474776
                                                         0.596768      -0.081757
                                                         0.222222       0.064432
                                                         0.077078       0.047279
                          1       5    4pz               7.884570       0.376572
                                                         3.894698      -0.182875
                                                         1.513589      -0.474776
                                                         0.596768      -0.081757
                                                         0.222222       0.064432
                                                         0.077078       0.047279

                          1       6    4dx2              7.884570       3.047350
                                                         3.894698       3.289529
                                                         1.513589       1.060616
                                                         0.596768       0.249930
                                                         0.222222       0.038806
                                                         0.077078       0.002319
                          1       6    4dxy              7.884570       5.278165
                                                         3.894698       5.697631
                                                         1.513589       1.837041
                                                         0.596768       0.432892
                                                         0.222222       0.067214
                                                         0.077078       0.004017
                          1       6    4dxz              7.884570       5.278165
                                                         3.894698       5.697631
                                                         1.513589       1.837041
                                                         0.596768       0.432892
                                                         0.222222       0.067214
                                                         0.077078       0.004017
                          1       6    4dy2              7.884570       3.047350
                                                         3.894698       3.289529
                                                         1.513589       1.060616
                                                         0.596768       0.249930
                                                         0.222222       0.038806
                                                         0.077078       0.002319
                          1       6    4dyz              7.884570       5.278165
                                                         3.894698       5.697631
                                                         1.513589       1.837041
                                                         0.596768       0.432892
                                                         0.222222       0.067214
                                                         0.077078       0.004017
                          1       6    4dz2              7.884570       3.047350
                                                         3.894698       3.289529
                                                         1.513589       1.060616
                                                         0.596768       0.249930
                                                         0.222222       0.038806
                                                         0.077078       0.002319

                          1       7    5dx2              7.884570      -2.119015
                                                         3.894698      -1.237751
                                                         1.513589      -0.746777
                                                         0.596768      -0.071514
                                                         0.222222       0.004086
                                                         0.077078       0.017595
                          1       7    5dxy              7.884570      -3.670241
                                                         3.894698      -2.143848
                                                         1.513589      -1.293455
                                                         0.596768      -0.123865
                                                         0.222222       0.007077
                                                         0.077078       0.030475
                          1       7    5dxz              7.884570      -3.670241
                                                         3.894698      -2.143848
                                                         1.513589      -1.293455
                                                         0.596768      -0.123865
                                                         0.222222       0.007077
                                                         0.077078       0.030475
                          1       7    5dy2              7.884570      -2.119015
                                                         3.894698      -1.237751
                                                         1.513589      -0.746777
                                                         0.596768      -0.071514
                                                         0.222222       0.004086
                                                         0.077078       0.017595
                          1       7    5dyz              7.884570      -3.670241
                                                         3.894698      -2.143848
                                                         1.513589      -1.293455
                                                         0.596768      -0.123865
                                                         0.222222       0.007077
                                                         0.077078       0.030475
                          1       7    5dz2              7.884570      -2.119015
                                                         3.894698      -1.237751
                                                         1.513589      -0.746777
                                                         0.596768      -0.071514
                                                         0.222222       0.004086
                                                         0.077078       0.017595

                          1       8    5fx3              7.884570      -0.342058
                                                         3.894698       0.375798
                                                         1.513589      -0.706469
                                                         0.596768      -0.229994
                                                         0.222222      -0.012723
                                                         0.077078       0.003932
                          1       8    5fx2y             7.884570      -0.764866
                                                         3.894698       0.840310
                                                         1.513589      -1.579712
                                                         0.596768      -0.514282
                                                         0.222222      -0.028450
                                                         0.077078       0.008792
                          1       8    5fx2z             7.884570      -0.764866
                                                         3.894698       0.840310
                                                         1.513589      -1.579712
                                                         0.596768      -0.514282
                                                         0.222222      -0.028450
                                                         0.077078       0.008792
                          1       8    5fxy2             7.884570      -0.764866
                                                         3.894698       0.840310
                                                         1.513589      -1.579712
                                                         0.596768      -0.514282
                                                         0.222222      -0.028450
                                                         0.077078       0.008792
                          1       8    5fxyz             7.884570      -1.324787
                                                         3.894698       1.455460
                                                         1.513589      -2.736142
                                                         0.596768      -0.890763
                                                         0.222222      -0.049276
                                                         0.077078       0.015229
                          1       8    5fxz2             7.884570      -0.764866
                                                         3.894698       0.840310
                                                         1.513589      -1.579712
                                                         0.596768      -0.514282
                                                         0.222222      -0.028450
                                                         0.077078       0.008792
                          1       8    5fy3              7.884570      -0.342058
                                                         3.894698       0.375798
                                                         1.513589      -0.706469
                                                         0.596768      -0.229994
                                                         0.222222      -0.012723
                                                         0.077078       0.003932
                          1       8    5fy2z             7.884570      -0.764866
                                                         3.894698       0.840310
                                                         1.513589      -1.579712
                                                         0.596768      -0.514282
                                                         0.222222      -0.028450
                                                         0.077078       0.008792
                          1       8    5fyz2             7.884570      -0.764866
                                                         3.894698       0.840310
                                                         1.513589      -1.579712
                                                         0.596768      -0.514282
                                                         0.222222      -0.028450
                                                         0.077078       0.008792
                          1       8    5fz3              7.884570      -0.342058
                                                         3.894698       0.375798
                                                         1.513589      -0.706469
                                                         0.596768      -0.229994
                                                         0.222222      -0.012723
                                                         0.077078       0.003932

       Atomic covalent radius [Angstrom]:                                  1.320

       Atomic van der Waals radius [Angstrom]:                             1.760

     GTH Potential information for                                   GTH-PBE-q12

       Description:                       Goedecker-Teter-Hutter pseudopotential
                                           Goedecker et al., PRB 54, 1703 (1996)
                                          Hartwigsen et al., PRB 58, 3641 (1998)
                                                      Krack, TCA 114, 145 (2005)

       Gaussian exponent of the core charge distribution:               3.462604
       Electronic configuration (s p d ...):                           4   6   2

       Parameters of the local part of the GTH pseudopotential:

                          rloc        C1          C2          C3          C4
                        0.380000    8.711442   -0.700287

       Parameters of the non-local part of the GTH pseudopotential:

                   l      r(l)      h(i,j,l)

                   0    0.337771    2.575264    3.692971
                                    3.692971   -4.767605
                   1    0.242531   -4.630541    8.870875
                                    8.870875  -10.496161
                   2    0.243317   -9.406653

  2. Atomic kind: O                                     Number of atoms:     128

     Orbital Basis Set                                     DZVP-MOLOPT-SR-GTH-q6

       Number of orbital shell sets:                                           1
       Number of orbital shells:                                               5
       Number of primitive Cartesian functions:                                5
       Number of Cartesian basis functions:                                   14
       Number of spherical basis functions:                                   13
       Norm type:                                                              2

       Normalised Cartesian orbitals:

                        Set   Shell   Orbital            Exponent    Coefficient

                          1       1    2s               10.389228       0.396646
                                                         3.849621       0.208811
                                                         1.388401      -0.301641
                                                         0.496955      -0.274061
                                                         0.162492      -0.033677

                          1       2    3s               10.389228       0.303673
                                                         3.849621       0.240943
                                                         1.388401      -0.313066
                                                         0.496955      -0.043055
                                                         0.162492       0.213991

                          1       3    3px              10.389228      -1.530415
                                                         3.849621      -1.371928
                                                         1.388401      -0.761951
                                                         0.496955      -0.253695
                                                         0.162492      -0.035541
                          1       3    3py              10.389228      -1.530415
                                                         3.849621      -1.371928
                                                         1.388401      -0.761951
                                                         0.496955      -0.253695
                                                         0.162492      -0.035541
                          1       3    3pz              10.389228      -1.530415
                                                         3.849621      -1.371928
                                                         1.388401      -0.761951
                                                         0.496955      -0.253695
                                                         0.162492      -0.035541

                          1       4    4px              10.389228      -0.565392
                                                         3.849621      -0.038231
                                                         1.388401      -0.382373
                                                         0.496955       0.179070
                                                         0.162492       0.122714
                          1       4    4py              10.389228      -0.565392
                                                         3.849621      -0.038231
                                                         1.388401      -0.382373
                                                         0.496955       0.179070
                                                         0.162492       0.122714
                          1       4    4pz              10.389228      -0.565392
                                                         3.849621      -0.038231
                                                         1.388401      -0.382373
                                                         0.496955       0.179070
                                                         0.162492       0.122714

                          1       5    4dx2             10.389228       1.867377
                                                         3.849621       0.670994
                                                         1.388401       1.353441
                                                         0.496955       0.273538
                                                         0.162492       0.006620
                          1       5    4dxy             10.389228       3.234392
                                                         3.849621       1.162195
                                                         1.388401       2.344229
                                                         0.496955       0.473781
                                                         0.162492       0.011466
                          1       5    4dxz             10.389228       3.234392
                                                         3.849621       1.162195
                                                         1.388401       2.344229
                                                         0.496955       0.473781
                                                         0.162492       0.011466
                          1       5    4dy2             10.389228       1.867377
                                                         3.849621       0.670994
                                                         1.388401       1.353441
                                                         0.496955       0.273538
                                                         0.162492       0.006620
                          1       5    4dyz             10.389228       3.234392
                                                         3.849621       1.162195
                                                         1.388401       2.344229
                                                         0.496955       0.473781
                                                         0.162492       0.011466
                          1       5    4dz2             10.389228       1.867377
                                                         3.849621       0.670994
                                                         1.388401       1.353441
                                                         0.496955       0.273538
                                                         0.162492       0.006620

       Atomic covalent radius [Angstrom]:                                  0.730

       Atomic van der Waals radius [Angstrom]:                             1.520

     GTH Potential information for                                    GTH-PBE-q6

       Description:                       Goedecker-Teter-Hutter pseudopotential
                                           Goedecker et al., PRB 54, 1703 (1996)
                                          Hartwigsen et al., PRB 58, 3641 (1998)
                                                      Krack, TCA 114, 145 (2005)

       Gaussian exponent of the core charge distribution:               8.360253
       Electronic configuration (s p d ...):                               2   4

       Parameters of the local part of the GTH pseudopotential:

                          rloc        C1          C2          C3          C4
                        0.244554  -16.667215    2.487311

       Parameters of the non-local part of the GTH pseudopotential:

                   l      r(l)      h(i,j,l)

                   0    0.220956   18.337458
                   1    0.211332

     A DFT+U correction is applied to atoms of this atomic kind:
       Angular quantum momentum number L:                                      1
       U(eff) = (U - J) value in [eV]:                                     6.500


 MOLECULE KIND INFORMATION


 All atoms are their own molecule, skipping detailed information


 TOTAL NUMBERS AND MAXIMUM NUMBERS

  Total number of            - Atomic kinds:                                   2
                             - Atoms:                                        192
                             - Shell sets:                                   192
                             - Shells:                                      1152
                             - Primitive Cartesian functions:               1024
                             - Cartesian basis functions:                   3776
                             - Spherical basis functions:                   3328

  Maximum angular momentum of- Orbital basis functions:                        3
                             - Local part of the GTH pseudopotential:          2
                             - Non-local part of the GTH pseudopotential:      3


 MODULE QUICKSTEP: ATOMIC COORDINATES IN ANGSTROM

   Atom Kind Element         X             Y             Z       Z(eff)     Mass
      1    1 Ti   22     -0.061003      0.074945      0.089718  12.0000  47.8670
      2    1 Ti   22      1.893668      1.966945      4.932641  12.0000  47.8670
      3    1 Ti   22      0.015362      2.099844      2.535321  12.0000  47.8670
      4    1 Ti   22      1.886131     -0.021223      7.158667  12.0000  47.8670
      5    1 Ti   22     -0.034588      3.765747     -0.080083  12.0000  47.8670
      6    1 Ti   22      1.899220     13.203031      4.861679  12.0000  47.8670
      7    1 Ti   22     11.278560      2.002727      2.442696  12.0000  47.8670
      8    1 Ti   22      5.627592     -0.089661      7.244123  12.0000  47.8670
      9    1 Ti   22      1.907257      3.804641      7.242112  12.0000  47.8670
     10    1 Ti   22      0.030934     13.331993      2.444092  12.0000  47.8670
     11    1 Ti   22      5.663262      1.821289      4.829047  12.0000  47.8670
     12    1 Ti   22     11.353273      0.142946     -0.072245  12.0000  47.8670
     13    1 Ti   22      3.715159      0.095995      0.029207  12.0000  47.8670
     14    1 Ti   22     13.098637      1.756373      4.702136  12.0000  47.8670
     15    1 Ti   22     13.232564     -0.053825      7.135271  12.0000  47.8670
     16    1 Ti   22      3.753264      1.809789      2.585767  12.0000  47.8670
     17    1 Ti   22      1.988331      5.655661      4.841148  12.0000  47.8670
     18    1 Ti   22     -0.039537     11.637596      0.047379  12.0000  47.8670
     19    1 Ti   22     -0.022843      5.772089      2.496063  12.0000  47.8670
     20    1 Ti   22      1.927211     11.268763      7.363994  12.0000  47.8670
     21    1 Ti   22      0.116970      7.501485      0.065886  12.0000  47.8670
     22    1 Ti   22      2.032979      9.518182      4.919779  12.0000  47.8670
     23    1 Ti   22      7.533822      1.968678      2.347131  12.0000  47.8670
     24    1 Ti   22      9.415819     -0.144699      7.188909  12.0000  47.8670
     25    1 Ti   22      1.925622      7.557021      7.177926  12.0000  47.8670
     26    1 Ti   22      0.139241      9.553727      2.484651  12.0000  47.8670
     27    1 Ti   22      9.292925      1.795186      4.757906  12.0000  47.8670
     28    1 Ti   22      7.475455     -0.085758     -0.089618  12.0000  47.8670
     29    1 Ti   22      3.695603      3.820759     -0.029905  12.0000  47.8670
     30    1 Ti   22     13.255511     13.187320      4.724327  12.0000  47.8670
     31    1 Ti   22     11.379532      5.731817      2.396757  12.0000  47.8670
     32    1 Ti   22      5.743170     11.301569      7.140034  12.0000  47.8670
     33    1 Ti   22     13.233999      3.662969      7.187924  12.0000  47.8670
     34    1 Ti   22      3.784975     13.157904      2.423010  12.0000  47.8670
     35    1 Ti   22      5.706831      5.725780      4.829857  12.0000  47.8670
     36    1 Ti   22     11.222270     11.447743      0.118145  12.0000  47.8670
     37    1 Ti   22     11.218310     13.300506      2.371682  12.0000  47.8670
     38    1 Ti   22      5.678773      3.773636      7.145066  12.0000  47.8670
     39    1 Ti   22      3.867552     11.450735      0.032571  12.0000  47.8670
     40    1 Ti   22     13.311244      5.549747      4.977055  12.0000  47.8670
     41    1 Ti   22      5.814932     13.217376      4.826381  12.0000  47.8670
     42    1 Ti   22     11.260996      3.773143     -0.059726  12.0000  47.8670
     43    1 Ti   22     13.053856     11.396535      7.273169  12.0000  47.8670
     44    1 Ti   22      3.732590      5.525187      2.436492  12.0000  47.8670
     45    1 Ti   22      3.793795      7.534518     -0.001593  12.0000  47.8670
     46    1 Ti   22     13.332622      9.428882      4.864430  12.0000  47.8670
     47    1 Ti   22      7.506666      5.704581      2.330991  12.0000  47.8670
     48    1 Ti   22      9.478964     11.103284      7.147633  12.0000  47.8670
     49    1 Ti   22     13.317001      7.580058      7.249103  12.0000  47.8670
     50    1 Ti   22      3.874954      9.421420      2.365390  12.0000  47.8670
     51    1 Ti   22      9.542820      5.552984      4.715314  12.0000  47.8670
     52    1 Ti   22      7.482349     11.320028      0.117353  12.0000  47.8670
     53    1 Ti   22     11.364039      9.385423      2.392002  12.0000  47.8670
     54    1 Ti   22      5.692013      7.647295      7.231015  12.0000  47.8670
     55    1 Ti   22      5.848458      9.401224      4.699431  12.0000  47.8670
     56    1 Ti   22     11.296501      7.623138     -0.022351  12.0000  47.8670
     57    1 Ti   22      9.434338      3.665283      7.120961  12.0000  47.8670
     58    1 Ti   22      7.582199     13.273997      2.365672  12.0000  47.8670
     59    1 Ti   22      7.434131      3.789737     -0.030956  12.0000  47.8670
     60    1 Ti   22      9.578712     13.221885      4.808004  12.0000  47.8670
     61    1 Ti   22      7.564187      7.531805     -0.023963  12.0000  47.8670
     62    1 Ti   22      9.574701      9.334245      4.740856  12.0000  47.8670
     63    1 Ti   22      7.633573      9.424292      2.344964  12.0000  47.8670
     64    1 Ti   22      9.538284      7.382250      7.137047  12.0000  47.8670
     65    2 O     8      0.084826      0.128164      2.177986   6.0000  15.9994
     66    2 O     8      1.587486      1.939846      6.717332   6.0000  15.9994
     67    2 O     8     -0.095086      1.998968      4.392971   6.0000  15.9994
     68    2 O     8      1.819623      0.164923      9.281797   6.0000  15.9994
     69    2 O     8      1.806247      0.014822      5.243030   6.0000  15.9994
     70    2 O     8     -0.157090      1.959528      0.540239   6.0000  15.9994
     71    2 O     8      1.835482      2.218049      2.841020   6.0000  15.9994
     72    2 O     8     -0.100185     -0.065307      7.577422   6.0000  15.9994
     73    2 O     8      0.016957      3.981673      2.068355   6.0000  15.9994
     74    2 O     8      2.001633     13.281225      6.842994   6.0000  15.9994
     75    2 O     8     11.295846      1.795872      4.275084   6.0000  15.9994
     76    2 O     8      5.683332     -0.063570      9.310317   6.0000  15.9994
     77    2 O     8      2.140346      3.790733      5.197271   6.0000  15.9994
     78    2 O     8      0.088339     13.406827      0.412613   6.0000  15.9994
     79    2 O     8      5.672861      1.738405      2.837239   6.0000  15.9994
     80    2 O     8     11.210226      0.047921      7.557657   6.0000  15.9994
     81    2 O     8      3.731589      0.163346      7.678147   6.0000  15.9994
     82    2 O     8     13.177381      1.845379      2.854244   6.0000  15.9994
     83    2 O     8     13.186510     -0.184032      9.235245   6.0000  15.9994
     84    2 O     8      3.697650      1.591970      4.393942   6.0000  15.9994
     85    2 O     8      1.947204      5.573746      6.686263   6.0000  15.9994
     86    2 O     8      0.137630     11.407833      1.952323   6.0000  15.9994
     87    2 O     8      0.106510      5.688524      0.465388   6.0000  15.9994
     88    2 O     8      1.976067     11.309771      5.182173   6.0000  15.9994
     89    2 O     8      0.101582      7.735063      1.942660   6.0000  15.9994
     90    2 O     8      2.256578      9.429516      6.731534   6.0000  15.9994
     91    2 O     8      7.396146      1.794289      4.301823   6.0000  15.9994
     92    2 O     8      9.442450      0.076149      9.222223   6.0000  15.9994
     93    2 O     8      1.768734      7.601900      5.305885   6.0000  15.9994
     94    2 O     8      0.132372      9.640829      0.269156   6.0000  15.9994
     95    2 O     8      9.377962      2.081788      2.874453   6.0000  15.9994
     96    2 O     8      7.486633     -0.177771      7.747687   6.0000  15.9994
     97    2 O     8      3.784166      0.098391      2.025481   6.0000  15.9994
     98    2 O     8     13.159666      1.829400      6.793060   6.0000  15.9994
     99    2 O     8      0.004507      5.607538      4.494162   6.0000  15.9994
    100    2 O     8      1.919824     11.352647      9.267982   6.0000  15.9994
    101    2 O     8     13.113837     -0.034881      5.102292   6.0000  15.9994
    102    2 O     8      3.690538      1.969490      0.453185   6.0000  15.9994
    103    2 O     8      1.912446      5.854274      2.944256   6.0000  15.9994
    104    2 O     8      0.164886     11.415723      7.576775   6.0000  15.9994
    105    2 O     8     11.354565      2.017198      0.237232   6.0000  15.9994
    106    2 O     8      5.828733     -0.116738      5.293638   6.0000  15.9994
    107    2 O     8      5.474776      1.877307      6.782585   6.0000  15.9994
    108    2 O     8     11.250253      0.091807      1.864883   6.0000  15.9994
    109    2 O     8      1.901247      3.861016      9.182924   6.0000  15.9994
    110    2 O     8     -0.045768     13.088348      4.466094   6.0000  15.9994
    111    2 O     8      0.062649      3.853093      7.691384   6.0000  15.9994
    112    2 O     8      1.914109     13.214128      2.903701   6.0000  15.9994
    113    2 O     8      4.032310      3.792427      2.025704   6.0000  15.9994
    114    2 O     8     13.072263     13.293343      6.672771   6.0000  15.9994
    115    2 O     8     11.394961      5.635724      4.370809   6.0000  15.9994
    116    2 O     8      5.663981     11.510861      9.244027   6.0000  15.9994
    117    2 O     8     13.190295      3.771649      5.162407   6.0000  15.9994
    118    2 O     8      3.633063     13.312099      0.529993   6.0000  15.9994
    119    2 O     8      5.700661      5.954590      2.695966   6.0000  15.9994
    120    2 O     8     11.281581     11.336530      7.726618   6.0000  15.9994
    121    2 O     8     11.222828     13.313151      0.452663   6.0000  15.9994
    122    2 O     8      5.357342      3.701878      5.229884   6.0000  15.9994
    123    2 O     8      3.815351     11.340329      7.659873   6.0000  15.9994
    124    2 O     8     13.265891      5.896689      2.887979   6.0000  15.9994
    125    2 O     8      5.489710     13.178103      6.765568   6.0000  15.9994
    126    2 O     8     11.614069      3.880616      1.908249   6.0000  15.9994
    127    2 O     8     13.194463     11.327475      9.237281   6.0000  15.9994
    128    2 O     8      3.905683      5.690765      4.473186   6.0000  15.9994
    129    2 O     8      5.738560      5.678156      6.716228   6.0000  15.9994
    130    2 O     8     11.071191     11.456065      1.972978   6.0000  15.9994
    131    2 O     8     13.170053      3.939426      9.074224   6.0000  15.9994
    132    2 O     8      3.767966     13.188085      4.359321   6.0000  15.9994
    133    2 O     8     11.310986      5.758156      0.431114   6.0000  15.9994
    134    2 O     8      5.768444     11.316772      5.210667   6.0000  15.9994
    135    2 O     8      3.751884      3.716571      7.615836   6.0000  15.9994
    136    2 O     8     13.141381     13.161270      2.700847   6.0000  15.9994
    137    2 O     8     13.023611     11.526168      5.110436   6.0000  15.9994
    138    2 O     8      3.692043      5.697798      0.464778   6.0000  15.9994
    139    2 O     8      5.736129     13.119474      2.885278   6.0000  15.9994
    140    2 O     8     11.324725      3.569175      7.576406   6.0000  15.9994
    141    2 O     8      4.002783     11.407996      1.930470   6.0000  15.9994
    142    2 O     8     13.192829      5.644825      7.036294   6.0000  15.9994
    143    2 O     8     11.312907     13.401532      4.294032   6.0000  15.9994
    144    2 O     8      5.646814      3.859992      9.149336   6.0000  15.9994
    145    2 O     8      3.841062      7.639017      1.857253   6.0000  15.9994
    146    2 O     8     13.296880      9.620231      6.740883   6.0000  15.9994
    147    2 O     8      7.608201      5.535602      4.298357   6.0000  15.9994
    148    2 O     8      9.398593     11.353371      9.251522   6.0000  15.9994
    149    2 O     8     13.209650      7.591048      5.463873   6.0000  15.9994
    150    2 O     8      3.869264      9.542815      0.377126   6.0000  15.9994
    151    2 O     8      9.592556      5.584327      2.797527   6.0000  15.9994
    152    2 O     8      7.593862     11.405928      7.633145   6.0000  15.9994
    153    2 O     8     11.374664      9.578496      0.347155   6.0000  15.9994
    154    2 O     8      5.669809      7.573892      5.195218   6.0000  15.9994
    155    2 O     8      5.452822      9.417567      6.701809   6.0000  15.9994
    156    2 O     8     11.174437      7.535428      1.984069   6.0000  15.9994
    157    2 O     8      9.453039      3.954721      9.119724   6.0000  15.9994
    158    2 O     8      7.628054     13.013350      4.478069   6.0000  15.9994
    159    2 O     8      7.515297      3.569697      7.556040   6.0000  15.9994
    160    2 O     8      9.424052     13.585195      2.947843   6.0000  15.9994
    161    2 O     8      7.406368     -0.078907      2.048692   6.0000  15.9994
    162    2 O     8      9.152961      1.824491      6.733563   6.0000  15.9994
    163    2 O     8      0.104687      9.301269      4.453748   6.0000  15.9994
    164    2 O     8      1.947324      7.498380      9.211459   6.0000  15.9994
    165    2 O     8      9.280099     -0.069196      5.123795   6.0000  15.9994
    166    2 O     8      7.723017      1.870372      0.443020   6.0000  15.9994
    167    2 O     8      1.973554      9.789658      2.776778   6.0000  15.9994
    168    2 O     8      0.035400      7.546111      7.629279   6.0000  15.9994
    169    2 O     8      7.593000      3.787044      1.984479   6.0000  15.9994
    170    2 O     8      9.502740     13.189975      6.756315   6.0000  15.9994
    171    2 O     8     11.505888      9.236980      4.354806   6.0000  15.9994
    172    2 O     8      5.647623      7.751256      9.150967   6.0000  15.9994
    173    2 O     8      9.509899      3.660395      5.142543   6.0000  15.9994
    174    2 O     8      7.532721     13.178165      0.343819   6.0000  15.9994
    175    2 O     8      5.708094      9.433772      2.634606   6.0000  15.9994
    176    2 O     8     11.303247      7.619621      7.529665   6.0000  15.9994
    177    2 O     8      3.801629      7.360224      7.530208   6.0000  15.9994
    178    2 O     8     13.312115      9.629522      2.820585   6.0000  15.9994
    179    2 O     8     13.265046      7.651950      9.453499   6.0000  15.9994
    180    2 O     8      3.874880      9.487684      4.336445   6.0000  15.9994
    181    2 O     8      9.679611      5.546144      6.783524   6.0000  15.9994
    182    2 O     8      7.613762     11.316349      1.968882   6.0000  15.9994
    183    2 O     8      7.250879      5.692231      0.263138   6.0000  15.9994
    184    2 O     8      9.501635     11.181021      5.166338   6.0000  15.9994
    185    2 O     8      7.951614      7.661516      1.911443   6.0000  15.9994
    186    2 O     8      9.427677      9.439847      6.757428   6.0000  15.9994
    187    2 O     8      7.607624      9.396163      4.329473   6.0000  15.9994
    188    2 O     8      9.446788      7.362957      9.258064   6.0000  15.9994
    189    2 O     8      9.295544      7.459224      5.274624   6.0000  15.9994
    190    2 O     8      7.517400      9.482093      0.383300   6.0000  15.9994
    191    2 O     8      9.567073      9.522360      2.887131   6.0000  15.9994
    192    2 O     8      7.641971      7.514439      7.609411   6.0000  15.9994



 SCF PARAMETERS         Density guess:                                   RESTART
                        --------------------------------------------------------
                        max_scf:                                              40
                        max_scf_history:                                       0
                        max_diis:                                              4
                        --------------------------------------------------------
                        eps_scf:                                        1.00E-06
                        eps_scf_history:                                0.00E+00
                        eps_diis:                                       1.00E-01
                        eps_eigval:                                     1.00E-05
                        --------------------------------------------------------
                        level_shift [a.u.]:                             0.000000
                        --------------------------------------------------------
                        Outer loop SCF in use 
                        No variables optimised in outer loop
                        eps_scf                                         1.00E-06
                        max_scf                                               60
                        No outer loop optimization
                        step_size                                       5.00E-01

 PW_GRID| Information for grid number                                          1
 PW_GRID| Grid distributed over                                   128 processors
 PW_GRID| Real space group dimensions                                   128    1
 PW_GRID| the grid is blocked:                                                NO
 PW_GRID| Cutoff [a.u.]                                                    300.0
 PW_GRID| spherical cutoff:                                                   NO
 PW_GRID|   Bounds   1           -112     112                Points:         225
 PW_GRID|   Bounds   2           -112     112                Points:         225
 PW_GRID|   Bounds   3            -72      71                Points:         144
 PW_GRID| Volume element (a.u.^3)  0.2035E-02     Volume (a.u.^3)     14833.7304
 PW_GRID| Grid span                                                    FULLSPACE
 PW_GRID|   Distribution                         Average         Max         Min
 PW_GRID|   G-Vectors                            56953.1       57150       56925
 PW_GRID|   G-Rays                                 253.1         254         253
 PW_GRID|   Real Space Points                    56953.1       64800       32400

 PW_GRID| Information for grid number                                          2
 PW_GRID| Number of the reference grid                                         1
 PW_GRID| Grid distributed over                                   128 processors
 PW_GRID| Real space group dimensions                                   128    1
 PW_GRID| the grid is blocked:                                                NO
 PW_GRID| Cutoff [a.u.]                                                    100.0
 PW_GRID| spherical cutoff:                                                   NO
 PW_GRID|   Bounds   1            -67      67                Points:         135
 PW_GRID|   Bounds   2            -67      67                Points:         135
 PW_GRID|   Bounds   3            -40      40                Points:          81
 PW_GRID| Volume element (a.u.^3)  0.1005E-01     Volume (a.u.^3)     14833.7304
 PW_GRID| Grid span                                                    FULLSPACE
 PW_GRID|   Distribution                         Average         Max         Min
 PW_GRID|   G-Vectors                            11533.0       12150       10800
 PW_GRID|   G-Rays                                  85.4          90          80
 PW_GRID|   Real Space Points                    11533.0       21870       10935

 PW_GRID| Information for grid number                                          3
 PW_GRID| Number of the reference grid                                         1
 PW_GRID| Grid distributed over                                   128 processors
 PW_GRID| Real space group dimensions                                     8   16
 PW_GRID| the grid is blocked:                                                NO
 PW_GRID| Cutoff [a.u.]                                                     33.3
 PW_GRID| spherical cutoff:                                                   NO
 PW_GRID|   Bounds   1            -37      37                Points:          75
 PW_GRID|   Bounds   2            -37      37                Points:          75
 PW_GRID|   Bounds   3            -24      23                Points:          48
 PW_GRID| Volume element (a.u.^3)  0.5494E-01     Volume (a.u.^3)     14833.7304
 PW_GRID| Grid span                                                    FULLSPACE
 PW_GRID|   Distribution                         Average         Max         Min
 PW_GRID|   G-Vectors                             2109.4        2475        1725
 PW_GRID|   G-Rays                                  28.1          33          23
 PW_GRID|   Real Space Points                     2109.4        2400        1728

 PW_GRID| Information for grid number                                          4
 PW_GRID| Number of the reference grid                                         1
 PW_GRID| Grid distributed over                                   128 processors
 PW_GRID| Real space group dimensions                                     8   16
 PW_GRID| the grid is blocked:                                                NO
 PW_GRID| Cutoff [a.u.]                                                     11.1
 PW_GRID| spherical cutoff:                                                   NO
 PW_GRID|   Bounds   1            -22      22                Points:          45
 PW_GRID|   Bounds   2            -22      22                Points:          45
 PW_GRID|   Bounds   3            -13      13                Points:          27
 PW_GRID| Volume element (a.u.^3)  0.2713         Volume (a.u.^3)     14833.7304
 PW_GRID| Grid span                                                    FULLSPACE
 PW_GRID|   Distribution                         Average         Max         Min
 PW_GRID|   G-Vectors                              427.1         585         270
 PW_GRID|   G-Rays                                   9.5          13           6
 PW_GRID|   Real Space Points                      427.1         486         270

 POISSON| Solver                                                        PERIODIC
 POISSON| Periodicity                                                        XYZ

 RS_GRID| Information for grid number                                          1
 RS_GRID|   Bounds   1           -112     112                Points:         225
 RS_GRID|   Bounds   2           -112     112                Points:         225
 RS_GRID|   Bounds   3            -72      71                Points:         144
 RS_GRID| Real space distribution over                                  8 groups
 RS_GRID| Real space distribution along direction                              1
 RS_GRID| Border size                                                         26
 RS_GRID| Real space distribution over                                 16 groups
 RS_GRID| Real space distribution along direction                              2
 RS_GRID| Border size                                                         26
 RS_GRID|   Distribution                         Average         Max         Min
 RS_GRID|   Planes                                  80.1          81          80
 RS_GRID|   Distribution                         Average         Max         Min
 RS_GRID|   Planes                                  66.1          67          66

 RS_GRID| Information for grid number                                          2
 RS_GRID|   Bounds   1            -67      67                Points:         135
 RS_GRID|   Bounds   2            -67      67                Points:         135
 RS_GRID|   Bounds   3            -40      40                Points:          81
 RS_GRID| Real space distribution over                                  8 groups
 RS_GRID| Real space distribution along direction                              1
 RS_GRID| Border size                                                         24
 RS_GRID| Real space distribution over                                 16 groups
 RS_GRID| Real space distribution along direction                              2
 RS_GRID| Border size                                                         24
 RS_GRID|   Distribution                         Average         Max         Min
 RS_GRID|   Planes                                  64.9          65          64
 RS_GRID|   Distribution                         Average         Max         Min
 RS_GRID|   Planes                                  56.4          57          56

 RS_GRID| Information for grid number                                          3
 RS_GRID|   Bounds   1            -37      37                Points:          75
 RS_GRID|   Bounds   2            -37      37                Points:          75
 RS_GRID|   Bounds   3            -24      23                Points:          48
 RS_GRID| Real space fully replicated
 RS_GRID| Group size                                                           1

 RS_GRID| Information for grid number                                          4
 RS_GRID|   Bounds   1            -22      22                Points:          45
 RS_GRID|   Bounds   2            -22      22                Points:          45
 RS_GRID|   Bounds   3            -13      13                Points:          27
 RS_GRID| Real space fully replicated
 RS_GRID| Group size                                                           1

 BFGS| Use rational function optimization for step estimation:                NO
 BFGS| Use model Hessian for initial guess:                                  YES
 BFGS| Restart Hessian:                                                       NO
 BFGS| Trust radius:                                                       0.472

 *******************************************************************************
 ***                     STARTING GEOMETRY OPTIMIZATION                      ***
 ***                                   BFGS                                  ***
 *******************************************************************************

 Spin 1

 Number of electrons:                                                        768
 Number of occupied orbitals:                                                768
 Number of molecular orbitals:                                               768

 Spin 2

 Number of electrons:                                                        767
 Number of occupied orbitals:                                                767
 Number of molecular orbitals:                                               767

 Number of orbital functions:                                               3328
 Number of independent orbital functions:                                   3328

 Extrapolation method: initial_guess

 *** WARNING in qs_initial_guess.F:306 :: User requested to restart the    ***
 *** wavefunction from the file named: tio2-RESTART.wfn. This file does    ***
 *** not exist. Please check the existence of the file or change properly  ***
 *** the value of the keyword WFN_RESTART_FILE_NAME. Calculation continues ***
 *** using ATOMIC GUESS.                                                   ***


 Atomic guess: The first density matrix is obtained in terms of atomic orbitals
               and electronic configurations assigned to each atomic kind

 Guess for atomic kind: Ti

 Electronic structure
    Total number of core electrons                                         10.00
    Total number of valence electrons                                      12.00
    Total number of electrons                                              22.00
    Multiplicity                                                   not specified
    S   [  2.00  2.00] 2.00  2.00
    P   [  6.00] 6.00
    D      2.00


 *******************************************************************************
                  Iteration          Convergence                     Energy [au]
 *******************************************************************************
                          1         2.59099                     -56.573945749309
                          2        0.737518                     -57.461623245624
                          3        0.123244E-01                 -57.676656834797
                          4        0.338536E-02                 -57.676690535970
                          5        0.252157E-03                 -57.676697146183
                          6        0.162704E-05                 -57.676697160103
                          7        0.846593E-06                 -57.676697160104

 Energy components [Hartree]           Total Energy ::          -57.676697160104
                                        Band Energy ::          -13.440549799540
                                     Kinetic Energy ::           25.008468428381
                                   Potential Energy ::          -82.685165588485
                                      Virial (-V/T) ::            3.306286661467
                                        Core Energy ::          -97.155838374470
                                          XC Energy ::           -6.919409696495
                                     Coulomb Energy ::           46.398550910862
                       Total Pseudopotential Energy ::         -122.259340742080
                       Local Pseudopotential Energy ::         -118.928992669456
                    Nonlocal Pseudopotential Energy ::           -3.330348072625
                                        Confinement ::            0.950339392289

 Orbital energies  State     L     Occupation   Energy[a.u.]          Energy[eV]

                       1     0          2.000      -2.312566          -62.928123
                       2     0          2.000      -0.123060           -3.348633

                       1     1          6.000      -1.385567          -37.703193

                       1     2          2.000      -0.127948           -3.481643


 Total Electron Density at R=0:                                         0.004726

 Guess for atomic kind: O

 Electronic structure
    Total number of core electrons                                          2.00
    Total number of valence electrons                                       6.00
    Total number of electrons                                               8.00
    Multiplicity                                                   not specified
    S   [  2.00] 2.00
    P      4.00


 *******************************************************************************
                  Iteration          Convergence                     Energy [au]
 *******************************************************************************
                          1        0.702811                     -15.577904332270
                          2        0.612408                     -15.588447180504
                          3        0.955344E-02                 -15.655871208406
                          4        0.223754E-02                 -15.655885053552
                          5        0.157183E-02                 -15.655885461027
                          6        0.124953E-02                 -15.655885607150
                          7        0.312011E-06                 -15.655885858066

 Energy components [Hartree]           Total Energy ::          -15.655885858066
                                        Band Energy ::           -2.983128125584
                                     Kinetic Energy ::           11.754765134683
                                   Potential Energy ::          -27.410650992749
                                      Virial (-V/T) ::            2.331875684345
                                        Core Energy ::          -26.153522949072
                                          XC Energy ::           -3.157392363346
                                     Coulomb Energy ::           13.655029454351
                       Total Pseudopotential Energy ::          -37.943026860963
                       Local Pseudopotential Energy ::          -39.220419683052
                    Nonlocal Pseudopotential Energy ::            1.277392822089
                                        Confinement ::            0.347387772086

 Orbital energies  State     L     Occupation   Energy[a.u.]          Energy[eV]

                       1     0          2.000      -0.861522          -23.443215

                       1     1          4.000      -0.315021           -8.572154


 Total Electron Density at R=0:                                         0.000093

 Spin 1
 Re-scaling the density matrix to get the right number of electrons for spin 1
                  # Electrons              Trace(P)               Scaling factor
                          768               768.001                        1.000

 Spin 2
 Re-scaling the density matrix to get the right number of electrons for spin 2
                  # Electrons              Trace(P)               Scaling factor
                          767               768.001                        0.999


 SCF WAVEFUNCTION OPTIMIZATION

  ----------------------------------- OT ---------------------------------------
  Minimizer      : DIIS                : direct inversion
                                         in the iterative subspace
                                         using   7 DIIS vectors
                                         safer DIIS on
  Preconditioner : FULL_SINGLE_INVERSE : inversion of 
                                         H + eS - 2*(Sc)(c^T*H*c+const)(Sc)^T
  Precond_solver : DEFAULT
  stepsize       :    0.08000000                  energy_gap     :    0.08000000
  eps_taylor     :   0.10000E-15                  max_taylor     :             4
  ----------------------------------- OT ---------------------------------------

  Step     Update method      Time    Convergence         Total energy    Change
  ------------------------------------------------------------------------------
     1 OT DIIS     0.80E-01    2.0     0.01004825     -5648.4430603265 -5.65E+03
     2 OT DIIS     0.80E-01    1.5     0.00727530     -5683.1518953950 -3.47E+01
     3 OT DIIS     0.80E-01    1.6     0.00497180     -5712.9612673445 -2.98E+01
     4 OT DIIS     0.80E-01    1.5     0.00375839     -5724.4980843818 -1.15E+01
     5 OT DIIS     0.80E-01    1.5     0.00274298     -5736.3063003534 -1.18E+01
     6 OT DIIS     0.80E-01    1.5     0.00223606     -5743.4775682822 -7.17E+00
     7 OT DIIS     0.80E-01    1.5     0.00187766     -5749.6490969130 -6.17E+00
     8 OT DIIS     0.80E-01    1.5     0.00152018     -5755.3908613060 -5.74E+00
     9 OT DIIS     0.80E-01    1.5     0.00128728     -5759.4465595259 -4.06E+00
    10 OT DIIS     0.80E-01    1.5     0.00101146     -5762.6971506194 -3.25E+00
    11 OT DIIS     0.80E-01    1.5     0.00092486     -5763.5405867423 -8.43E-01
    12 OT DIIS     0.80E-01    1.5     0.00074654     -5765.4881605071 -1.95E+00
    13 OT DIIS     0.80E-01    1.5     0.00062054     -5766.7843059672 -1.30E+00
    14 OT DIIS     0.80E-01    1.6     0.00051940     -5767.7909554901 -1.01E+00
    15 OT DIIS     0.80E-01    1.5     0.00046313     -5768.3233705641 -5.32E-01
    16 OT DIIS     0.80E-01    1.5     0.00037571     -5769.0443958241 -7.21E-01
    17 OT DIIS     0.80E-01    1.5     0.00035549     -5769.2127523046 -1.68E-01
    18 OT DIIS     0.80E-01    1.5     0.00031948     -5769.4288289889 -2.16E-01
    19 OT DIIS     0.80E-01    1.5     0.00029259     -5769.6237309236 -1.95E-01
    20 OT DIIS     0.80E-01    1.5     0.00027478     -5769.7435394851 -1.20E-01
    21 OT DIIS     0.80E-01    1.5     0.00021885     -5770.0675901714 -3.24E-01
    22 OT DIIS     0.80E-01    1.5     0.00018845     -5770.2386646740 -1.71E-01
    23 OT DIIS     0.80E-01    1.5     0.00018488     -5770.3117177853 -7.31E-02
    24 OT DIIS     0.80E-01    1.5     0.00017163     -5770.3377537628 -2.60E-02
    25 OT DIIS     0.80E-01    1.5     0.00016332     -5770.3747695026 -3.70E-02
    26 OT DIIS     0.80E-01    1.5     0.00014220     -5770.4899688236 -1.15E-01
    27 OT DIIS     0.80E-01    1.5     0.00013441     -5770.5302769918 -4.03E-02
    28 OT DIIS     0.80E-01    1.5     0.00012413     -5770.5851768372 -5.49E-02
    29 OT SD       0.80E-01    1.5     0.00011917     -5770.6404797761 -5.53E-02
    30 OT DIIS     0.80E-01    1.5     0.00011626     -5770.6462021946 -5.72E-03
    31 OT DIIS     0.80E-01    1.5     0.00010675     -5770.6989761918 -5.28E-02
    32 OT DIIS     0.80E-01    1.5     0.00010618     -5770.7147199600 -1.57E-02
    33 OT DIIS     0.80E-01    1.5     0.00010273     -5770.7337392931 -1.90E-02
    34 OT DIIS     0.80E-01    1.5     0.00009320     -5770.7824914081 -4.88E-02
    35 OT DIIS     0.80E-01    1.5     0.00008601     -5770.8145964040 -3.21E-02
    36 OT DIIS     0.80E-01    1.5     0.00008309     -5770.8307197141 -1.61E-02
    37 OT DIIS     0.80E-01    1.5     0.00007974     -5770.8439822448 -1.33E-02
    38 OT DIIS     0.80E-01    1.5     0.00008763     -5770.8651398913 -2.12E-02
    39 OT DIIS     0.80E-01    1.5     0.00007057     -5770.8854905891 -2.04E-02
    40 OT DIIS     0.80E-01    1.5     0.00006634     -5770.9174153801 -3.19E-02

  Leaving inner SCF loop after reaching    40 steps.


  Electronic density on regular grids:      -1534.9999999999        0.0000000001
  Core density on regular grids:             1535.9999999995       -0.0000000005
  Total charge density on r-space grids:        0.9999999996
  Total charge density g-space grids:           0.9999999996

  Overlap energy of the core charge distribution:               0.00000000006600
  Self energy of the core charge distribution:             -12156.89556134359555
  Core Hamiltonian energy:                                   3299.70443718079923
  Hartree energy:                                            3998.44609170121976
  Exchange-correlation energy:                               -928.72363097232494

  DFT+U energy:                                                16.55124805373329

  Total energy:                                             -5770.91741538010228

  outer SCF iter =    1 RMS gradient =   0.66E-04 energy =      -5770.9174153801

  ----------------------------------- OT ---------------------------------------
  Minimizer      : DIIS                : direct inversion
                                         in the iterative subspace
                                         using   7 DIIS vectors
[...]
 flops   416 x    64 x    32       11149466664960       0.0%    100.0%      0.0%     
 flops   416 x    32 x    64       11149466664960       0.0%    100.0%      0.0%     
 flops    96 x    32 x   208       14002060001280       0.0%    100.0%      0.0%     
 flops   416 x    32 x   208       17631620890624       0.0%    100.0%      0.0%     
 flops   416 x    64 x    64       20998162219008       0.0%    100.0%      0.0%     
 flops    96 x    64 x   208       26431686967296       0.0%    100.0%      0.0%     
 flops    13 x    32 x    13       28081354832128       0.0%    100.0%      0.0%     
 flops    26 x    32 x    26       28925172383744       0.0%    100.0%      0.0%     
 flops    26 x    32 x    13       28925172383744       0.0%    100.0%      0.0%     
 flops    13 x    32 x    26       28925172383744       0.0%    100.0%      0.0%     
 flops   416 x    64 x   208       33363557613568       0.0%    100.0%      0.0%     
 flops inhomo. stacks                   154149114     100.0%      0.0%      0.0%
 flops total                       315.175841E+12       0.0%    100.0%      0.0%
 flops max/rank                      3.289487E+12       0.0%    100.0%      0.0%
 matmuls inhomo. stacks                    223197     100.0%      0.0%      0.0%
 matmuls total                         7666971059       0.0%    100.0%      0.0%
 number of processed stacks             196014461       0.1%     99.9%      0.0%
 average stack size                                     1.0      39.2       0.0
 marketing flops                   343.727273E+12
 -------------------------------------------------------------------------------
 # multiplications                         168211
 max memory usage/rank             379.678720E+06
 # max total images/rank                        2
 # max 3D layers                                1
 # MPI messages exchanged               624399232
 MPI messages size (bytes):
  total size                        56.976403E+12
  min size                           0.000000E+00
  max size                         692.224000E+03
  average size                      91.249953E+03
 MPI breakdown and total messages size (bytes):
             size <=      128           330702432                  7999064
       128 < size <=     8192            27178752             150089122768
      8192 < size <=    32768            70619360            1606671350792
     32768 < size <=   131072            88613888            6876305855744
    131072 < size <=  4194304           107284800           48306249613440
   4194304 < size <= 16777216                   0                        0
  16777216 < size                               0                        0
 -------------------------------------------------------------------------------

 *** WARNING in dbcsr_mm.F:301 :: Using a non-square number of MPI ranks ***
 *** might lead to poor performance. Used ranks: 128 Suggested: 121 256  ***

 -------------------------------------------------------------------------------
 -                                                                             -
 -                      DBCSR MESSAGE PASSING PERFORMANCE                      -
 -                                                                             -
 -------------------------------------------------------------------------------
 ROUTINE             CALLS      AVE VOLUME [Bytes]
 MP_Bcast               97                     12.
 MP_Allreduce       852218                      9.
 MP_Alltoall        623887                  29025.
 MP_ISend         10560058                  44957.
 MP_IRecv         10530014                  44726.
 -------------------------------------------------------------------------------

 -------------------------------------------------------------------------------
 -                                                                             -
 -                                DBM STATISTICS                               -
 -                                                                             -
 -------------------------------------------------------------------------------
    M  x    N  x    K                                          COUNT     PERCENT
 -------------------------------------------------------------------------------

 -------------------------------------------------------------------------------
 -                                                                             -
 -                                GRID STATISTICS                              -
 -                                                                             -
 -------------------------------------------------------------------------------
 LP    KERNEL             BACKEND                              COUNT     PERCENT
 5     collocate ortho    CPU                              452814854      24.98%
 5     integrate ortho    CPU                              443410276      24.46%
 6     integrate ortho    CPU                              239145978      13.19%
 6     collocate ortho    CPU                              231152106      12.75%
 4     collocate ortho    CPU                              205477000      11.33%
 4     integrate ortho    CPU                              197778068      10.91%
 0     integrate general  CPU                               21233664       1.17%
 0     collocate general  CPU                               11943936       0.66%
 7     integrate ortho    CPU                                8492734       0.47%
 1     integrate general  CPU                                1302528       0.07%
 2     collocate ortho    CPU                                 138240       0.01%
 3     collocate ortho    CPU                                  82944       0.00%
 -------------------------------------------------------------------------------

 MEMORY| Estimated peak process memory [MiB]                                 363

 -------------------------------------------------------------------------------
 ----                             MULTIGRID INFO                            ----
 -------------------------------------------------------------------------------
 count for grid        1:        8465717          cutoff [a.u.]          300.00
 count for grid        2:        9234155          cutoff [a.u.]          100.00
 count for grid        3:       13732089          cutoff [a.u.]           33.33
 count for grid        4:       16314560          cutoff [a.u.]           11.11
 total gridlevel count  :       47746521

 -------------------------------------------------------------------------------
 -                                                                             -
 -                         MESSAGE PASSING PERFORMANCE                         -
 -                                                                             -
 -------------------------------------------------------------------------------

 ROUTINE             CALLS      AVE VOLUME [Bytes]
 MP_Group                4
 MP_Bcast            96549                   5426.
 MP_Allreduce       266010                    364.
 MP_Sync             20086
 MP_Alltoall         61309                2247183.
 MP_SendRecv        787400                  11544.
 MP_ISendRecv       732028                  11544.
 MP_Wait           1097942
 MP_comm_split        8118
 MP_ISend           659046                  79121.
 MP_IRecv           656866                  79372.
 MP_Write_All          324                 355816.
 -------------------------------------------------------------------------------


 -------------------------------------------------------------------------------
 -                                                                             -
 -                           R E F E R E N C E S                               -
 -                                                                             -
 -------------------------------------------------------------------------------
 
 CP2K version 2024.3, the CP2K developers group (2024).
 CP2K is freely available from https://www.cp2k.org/ .
 
 T. D. Kuehne, M. Iannuzzi, M. Del Ben, V. V. Rybkin, P. Seewald, F. Stein, T. 
 Laino, R. Z. Khaliullin, O. Schuett, F. Schiffmann, D. Golze, J. Wilhelm, S. 
 Chulkov, M. H. Bani-Hashemian, V. Weber, U. Borstnik, M. Taillefumier, A. S. 
 Jakobovits, A. Lazzaro, H. Pabst, T. Mueller, R. Schade, M. Guidon, S. 
 Andermatt, N. Holmberg, G. K. Schenter, A. Hehn, A. Bussy, F. Belleflamme, G. 
 Tabacchi, A. Gloess, M. Lass, I. Bethune, C. J. Mundy, C. Plessl, M. Watkins, 
 J. VandeVondele, M. Krack, J. Hutter.
 J. Chem. Phys. 152, 194103 (2020).
 CP2K: An electronic structure and molecular dynamics software package - 
 Quickstep: Efficient and accurate electronic structure calculations.
 https://doi.org/10.1063/5.0007045

 O. Schuett, P. Messmer, J. Hutter, J. VandeVondele.
 Electronic Structure Calculations on Graphics Processing Units, 173-190 (2016).
 GPU-Accelerated Sparse Matrix-Matrix Multiplication for Linear Scaling Density 
 Functional Theory.
 https://doi.org/10.1002/9781118670712.ch8

 A. Heinecke, G. Henry, M. Hutchinson, H. Pabst.
 Proceedings of Intl. Supercomputing Conference, 981-991 (2016).
 LIBXSMM: Accelerating Small Matrix Multiplications by Runtime Code Generation.
 https://doi.org/10.1109/SC.2016.83

 J. Hutter, M. Iannuzzi, F. Schiffmann, J. VandeVondele.
 WIREs Comput Mol Sci. 4, 15-25 (2014).
 CP2K: atomistic simulations of condensed matter systems.
 https://doi.org/10.1002/wcms.1159

 U. Borstnik, J. VandeVondele, V. Weber, J. Hutter.
 Parallel Comput. 40, 47-58 (2014).
 Sparse matrix multiplication: The distributed block-compressed sparse row 
 library.
 https://doi.org/10.1016/j.parco.2014.03.012

 A. Marek, V. Blum, R. Johanni, V. Havu, B. Lang, T. Auckenthaler, A. Heinecke, 
 H. Bungartz, H. Lederer.
 J. Phys. Condens. Matter 26, 213201 (2014).
 The ELPA library: scalable parallel eigenvalue solutions for electronic 
 structure theory and computational science.
 https://doi.org/10.1088/0953-8984/26/21/213201

 J. VandeVondele, J. Hutter.
 J. Chem. Phys. 127, 114105 (2007).
 Gaussian basis sets for accurate calculations on molecular systems in gas and 
 condensed phases.
 https://doi.org/10.1063/1.2770708

 T. D. Khne, M. Krack, F. R. Mohamed, M. Parrinello.
 Phys. Rev. Lett. 98, 066401 (2007).
 Efficient and accurate Car-Parrinello-like approach to Born-Oppenheimer 
 molecular dynamics.
 https://doi.org/10.1103/PhysRevLett.98.066401

 J. VandeVondele, M. Krack, F. Mohamed, M. Parrinello, T. Chassaing, J. Hutter.
 Comput. Phys. Commun. 167, 103-128 (2005).
 QUICKSTEP: Fast and accurate density functional calculations using a mixed 
 Gaussian and plane waves approach.
 https://doi.org/10.1016/j.cpc.2004.12.014

 M. Krack.
 Theor. Chem. Acc. 114, 145-152 (2005).
 Pseudopotentials for H to Kr optimized for gradient-corrected 
 exchange-correlation functionals.
 https://doi.org/10.1007/s00214-005-0655-y

 M. Frigo, S. G. Johnson.
 Proc. IEEE 93, 216-231 (2005).
 The design and implementation of FFTW3.
 https://doi.org/10.1109/JPROC.2004.840301

 J. Kolafa.
 J. Comput. Chem. 25, 335-342 (2004).
 Time-reversible always stable predictor-corrector method for molecular dynamics 
 of polarizable molecules.
 https://doi.org/10.1002/jcc.10385

 J. VandeVondele, J. Hutter.
 J. Chem. Phys. 118, 4365-4369 (2003).
 An efficient orbital transformation method for electronic structure 
 calculations.
 https://doi.org/10.1063/1.1543154

 C. Hartwigsen, S. Goedecker, J. Hutter.
 Phys. Rev. B 58, 3641-3662 (1998).
 Relativistic separable dual-space Gaussian pseudopotentials from H to Rn.
 https://doi.org/10.1103/PhysRevB.58.3641

 S. L. Dudarev, G. A. Botton, S. Y. Savrasov, C. J. Humphreys, A. P. Sutton.
 Phys. Rev. B 57, 1505-1509 (1998).
 Electron-energy-loss spectra and the structural stability of nickel oxide: An 
 LSDA+U study.
 https://doi.org/10.1103/PhysRevB.57.1505

 G. Lippert, J. Hutter, M. Parrinello.
 Mol. Phys. 92, 477-487 (1997).
 A hybrid Gaussian and plane wave density functional scheme.
 https://doi.org/10.1080/002689797170220

 S. L. Dudarev, D. N. Manh, A. P. Sutton.
 Philos. Mag. B 75, 613-628 (1997).
 Effect of Mott-Hubbard correlations on the electronic structure and structural 
 stability of uranium dioxide.
 https://doi.org/10.1080/13642819708202343

 S. Goedecker, M. Teter, J. Hutter.
 Phys. Rev. B 54, 1703-1710 (1996).
 Separable dual-space Gaussian pseudopotentials.
 https://doi.org/10.1103/PhysRevB.54.1703

 J. P. Perdew, K. Burke, M. Ernzerhof.
 Phys. Rev. Lett. 77, 3865-3868 (1996).
 Generalized gradient approximation made simple.
 https://doi.org/10.1103/PhysRevLett.77.3865


 -------------------------------------------------------------------------------
 -                                                                             -
 -                                T I M I N G                                  -
 -                                                                             -
 -------------------------------------------------------------------------------
 SUBROUTINE                       CALLS  ASD         SELF TIME        TOTAL TIME
                                MAXIMUM       AVERAGE  MAXIMUM  AVERAGE  MAXIMUM
 CP2K                                 1  1.0    0.072    0.088 2728.647 2728.660
 cp_geo_opt                           1  2.0    0.003    0.007 2727.920 2727.929
 geoopt_bfgs                          1  3.0    0.058    0.065 2727.916 2727.929
 cp_eval_at                          54  4.0    0.022    0.025 2721.930 2721.947
 qs_forces                           53  5.0    0.023    0.027 2695.471 2695.479
 qs_energies                         54  6.0    0.012    0.015 2582.449 2582.494
 scf_env_do_scf                      54  7.0    0.010    0.013 1984.950 1984.959
 scf_env_do_scf_inner_loop         1388  8.0    0.047    0.322 1904.580 1906.600
 rebuild_ks_matrix                 1441  9.9    0.008    0.010 1054.711 1057.379
 qs_ks_build_kohn_sham_matrix      1441 10.9    0.277    0.320 1054.703 1057.372
 qs_ks_update_qs_env               1450  9.0    0.026    0.043  995.811  998.306
 dbcsr_multiply_generic          168211 12.6    5.827    6.348  663.590  683.951
 sum_up_and_integrate              1441 11.9    0.062    0.100  672.151  672.454
 integrate_v_rspace                2882 12.9    0.116    0.168  670.385  671.303
 qs_rho_update_rho_low             1442  9.0    0.026    0.029  589.052  589.237
 calculate_rho_elec                2884 10.0    1.072    1.223  589.026  589.211
 scf_post_calculation_gpw            54  7.0    0.008    0.011  517.325  517.336
 grid_integrate_task_list          2882 13.9  480.580  508.902  480.580  508.902
 multiply_cannon                 168211 13.6   31.956   34.267  437.718  498.963
 grid_collocate_task_list          2884 11.0  425.520  449.966  425.520  449.966
 multiply_cannon_loop            168211 14.6   12.476   13.731  363.776  422.530
 qs_scf_new_mos                    1388  9.0    0.010    0.014  379.841  383.279
 qs_scf_loop_do_ot                 1388 10.0    0.012    0.016  379.831  383.268
 fft_wrap_pw1pw2                  48697 14.2    0.936    1.108  321.586  360.824
 ot_scf_mini                       1388 11.0    0.058    0.074  349.247  351.744
 fft_wrap_pw1pw2_300              30751 15.7   12.114   13.102  298.544  337.325
 ot_mini                           9068 10.3    0.098    0.117  325.078  328.190
 qs_vxc_create                     1441 11.9    0.038    0.046  304.238  306.503
 xc_vxc_pw_create                  1441 12.9    5.502    7.028  304.200  306.474
 make_lumo_gpw                       54  8.0    0.005    0.005  304.437  304.450
 ot_eigensolver                     108  9.0    0.122    0.134  303.417  303.421
 fft3d_ps                         48697 16.2   96.106  106.589  253.362  299.263
 mp_waitall_1                   ******* 16.7  196.630  273.179  196.630  273.179
 multiply_cannon_multrec        2691376 15.6  142.735  244.341  143.323  244.949
 xc_pw_derive                     17292 14.9    0.160    0.187  205.535  240.967
 qs_ot_get_derivative              6670 11.8    0.048    0.057  236.361  237.998
 multiply_cannon_metrocomm3     2691376 15.6    6.574    7.284  143.764  236.791
 mp_alltoall_z22v                 48697 18.2  130.860  203.979  130.860  203.979
 xc_rho_set_and_dset_create        1441 13.9    4.949    7.873  157.838  167.709
 xc_pw_divergence                  2882 13.9    0.070    0.087  136.076  163.868
 write_available_results             54  8.0    0.003    0.004  163.615  163.745
 density_rs2pw                     2884 11.0    0.142    0.170  147.753  163.106
 write_mo_free_results               54  9.0    6.746    6.937  161.629  161.757
 make_m2s                        336422 13.6    4.541    4.940  144.149  152.723
 potential_pw2rs                   2882 13.9    0.212    0.239  147.386  148.542
 qs_ot_get_p                      10803 10.5    0.059    0.071  122.520  129.113
 make_images                     336422 14.6    8.744    9.589  117.183  124.436
 yz_to_x                          17782 17.3    7.516   10.614   74.356  122.687
 transfer_pw2rs                   11689 14.8    0.170    0.193  111.463  112.092
 transfer_rs2pw                   12508 11.9    0.201    0.264   94.304  109.351
 mp_waitany                      293054 15.3   79.947  102.447   79.947  102.447
 x_to_yz                          18951 17.6   12.518   16.152   75.680   96.057
 qs_ot_get_derivative_taylor       2607 13.7    0.064    0.072   85.625   87.103
 hirshfeld_integration              108 10.0   77.288   81.056   83.862   83.901
 transfer_pw2rs_300                3043 15.7   38.882   40.832   78.249   82.108
 apply_preconditioner_dbcsr        7017 12.8    0.017    0.019   74.370   81.361
 apply_single                      7017 13.8    0.020    0.023   74.353   81.343
 multiply_cannon_metrocomm4     2523165 15.6    6.263    7.037   30.121   80.505
 mp_sum_l                        795390 13.7   49.956   79.983   49.956   79.983
 init_scf_loop                       62  8.0    0.006    0.007   78.364   78.392
 build_core_hamiltonian_matrix_      53  6.0    0.003    0.003   64.640   78.123
 transfer_rs2pw_300                3208 12.8   21.584   26.481   61.826   77.585
 mp_irecv_dv                    5376061 16.6   24.227   75.754   24.227   75.754
 mp_alltoall_d11v                139351 15.0   56.530   74.701   56.530   74.701
 qs_ot_get_derivative_diag         4063 12.3    0.072    0.080   69.527   69.926
 mp_sum_d                        135268 14.1   42.726   63.093   42.726   63.093
 qs_ot_p2m_diag                    7849 11.1    0.394    0.483   61.859   62.424
 qs_ks_update_qs_env_forces          53  6.0    0.000    0.001   60.915   61.059
 rs_gather_matrices                2882 13.9    1.334    1.696   41.754   59.558
 ot_diis_step                      1388 13.0    0.116    0.130   56.740   56.751
 xc_functional_eval                1441 14.9    0.025    0.031   46.192   54.788
 pbe_lsd_eval                      1441 15.9   46.167   54.764   46.167   54.764
 -------------------------------------------------------------------------------

 The number of warnings for this run is : 2
 
 -------------------------------------------------------------------------------
  **** **** ******  **  PROGRAM ENDED AT                 2025-06-18 16:48:05.769
 ***** ** ***  *** **   PROGRAM RAN ON                                 nid001159
 **    ****   ******    PROGRAM RAN BY                                    cahart
 ***** **    ** ** **   PROGRAM PROCESS ID                                181151
  **** **  *******  **  PROGRAM STOPPED IN /mnt/lustre/a2fs-work2/work/e05/e05/c
                                           ahart/postdoc2/work/group/tio2/anatas
                                           e/cell-441/geo-opt/mp-390/hole/from-m
                                           d-hole/pbe-u-o/u-6.5
