     192
 i =        1, E =     -5771.4331317877
Ti        -0.0043605095        0.0136955439       -0.0062831079
Ti        -0.0078257849       -0.0030267370       -0.0169809160
Ti        -0.0072373331        0.0023503720       -0.0151396566
Ti        -0.0075676282        0.0091393742        0.0130763615
Ti        -0.0050353225       -0.0054125562        0.0143904246
Ti         0.0012140878        0.0053112339        0.0045042149
Ti         0.0055644981        0.0043121691       -0.0265002310
Ti         0.0003223964        0.0080096287        0.0061251623
Ti        -0.0014271779       -0.0148224414       -0.0048716878
Ti        -0.0128339065       -0.0024447914       -0.0005532549
Ti        -0.0137795282        0.0050917644        0.0002031253
Ti        -0.0035546891       -0.0072962519       -0.0021513631
Ti        -0.0002322359       -0.0055138144       -0.0063531084
Ti         0.0152758414        0.0066769984        0.0231762298
Ti        -0.0143235496        0.0087174432        0.0098362053
Ti         0.0027130881        0.0232742505       -0.0122765998
Ti        -0.0023472918        0.0057232819       -0.0204133051
Ti        -0.0005241487       -0.0016659510       -0.0117012520
Ti         0.0068190267        0.0034006975        0.0033070400
Ti         0.0091081785        0.0071478439       -0.0183470371
Ti        -0.0098852505        0.0098750006       -0.0099716377
Ti        -0.0049623883       -0.0127725561       -0.0310947569
Ti        -0.0028472038       -0.0101861129       -0.0081111682
Ti        -0.0038255016        0.0096863145       -0.0006414827
Ti        -0.0005802392       -0.0046074173        0.0107754034
Ti        -0.0008245657       -0.0072594081        0.0150570152
Ti        -0.0000367653        0.0027429850        0.0100994459
Ti         0.0146256860        0.0076649980        0.0290798830
Ti         0.0144250656        0.0007412471        0.0057339744
Ti        -0.0107289972        0.0214902169       -0.0086310503
Ti         0.0070400672       -0.0074314667        0.0021405864
Ti        -0.0006716437       -0.0036343540        0.0122171912
Ti         0.0049049630        0.0036741907       -0.0128058676
Ti         0.0052017733        0.0189437345        0.0005968074
Ti         0.0165582010       -0.0112175594       -0.0104731066
Ti         0.0003798420        0.0038970995       -0.0114032478
Ti         0.0013369498        0.0003850381       -0.0016117738
Ti        -0.0021697803        0.0001822530       -0.0000755976
Ti        -0.0061812920       -0.0032546092       -0.0164363617
Ti        -0.0109456015        0.0085532438        0.0016678618
Ti        -0.0096524830       -0.0065289323       -0.0046437714
Ti         0.0047500186        0.0131483471        0.0110566532
Ti         0.0078446654        0.0027503728       -0.0014687293
Ti         0.0045365843        0.0060273154        0.0075819276
Ti        -0.0000422427        0.0103477556       -0.0201378401
Ti        -0.0002525628        0.0080916467       -0.0026609927
Ti         0.0016814146        0.0051797632       -0.0029729740
Ti        -0.0063414318        0.0272377478        0.0030479362
Ti        -0.0071279459        0.0002107797        0.0179344549
Ti        -0.0125814929        0.0045660145        0.0008453555
Ti        -0.0030548136        0.0008071495        0.0115495663
Ti         0.0089925657        0.0000177205       -0.0144932835
Ti         0.0106323640        0.0044599915       -0.0056345902
Ti         0.0064256583       -0.0079606355        0.0057109154
Ti        -0.0113399065        0.0033167382        0.0018180618
Ti        -0.0018893525        0.0080958865       -0.0063091896
Ti        -0.0041294819       -0.0012638300       -0.0028773472
Ti         0.0104817121       -0.0078645629       -0.0041435879
Ti         0.0097057690       -0.0026183719        0.0049172489
Ti        -0.0064340367       -0.0079454431        0.0109750862
Ti        -0.0000927206        0.0032990414       -0.0038676327
Ti         0.0005560334        0.0008683522        0.0081108183
Ti        -0.0022745951        0.0039370267        0.0045166060
Ti        -0.0120452245        0.0076862488        0.0050908326
O         0.0017672709        0.0013913910       -0.0094567015
O         0.0087193419       -0.0031219718        0.0149340030
O         0.0171088477       -0.0044773394        0.0031468841
O         0.0031575202       -0.0037458667       -0.0059751532
O         0.0005264690        0.0012338628       -0.0056787775
O         0.0066584729       -0.0016978542       -0.0029882628
O         0.0033477113       -0.0138842065        0.0010369016
O         0.0179915002       -0.0006639853        0.0055640096
O        -0.0022341930       -0.0044358321       -0.0068990949
O        -0.0009470464       -0.0178886316        0.0008531902
O        -0.0137040355       -0.0009537048        0.0145892726
O        -0.0199959729        0.0045495761       -0.0044746382
O        -0.0072501360        0.0116569928        0.0080772433
O         0.0012041187       -0.0026723853        0.0042190377
O         0.0011690532        0.0054552728       -0.0014190215
O         0.0092887348        0.0006050788        0.0043904059
O         0.0019288929       -0.0048856534       -0.0043680667
O        -0.0020618132        0.0025916066       -0.0056265445
O         0.0075299839        0.0109933748       -0.0078287617
O         0.0068324219        0.0023690976        0.0148754717
O        -0.0039704604        0.0100850196        0.0164339824
O        -0.0001904476       -0.0082423278        0.0030589277
O        -0.0051678221       -0.0137397713        0.0009211549
O        -0.0011234606        0.0157108360        0.0059811189
O         0.0008189563       -0.0047453967       -0.0002105696
O        -0.0074926307       -0.0012023240        0.0158737209
O         0.0189875285        0.0024139825        0.0026553277
O         0.0014630368       -0.0028493800       -0.0064945487
O         0.0085371332       -0.0012284386       -0.0045002847
O        -0.0037068125       -0.0055117435       -0.0022829818
O         0.0029549897       -0.0075597602       -0.0070079430
O        -0.0023069260        0.0033406634       -0.0209895723
O         0.0002724948       -0.0126393112       -0.0025100817
O         0.0045899619        0.0031262447       -0.0056587072
O         0.0118384100       -0.0008891326       -0.0095598302
O        -0.0138577453        0.0003890441        0.0040495210
O         0.0039484594        0.0098602924        0.0066052964
O         0.0006468267       -0.0050153579        0.0084952336
O        -0.0081997329       -0.0058873474       -0.0068112912
O        -0.0239673865        0.0026506495        0.0132472827
O        -0.0031034246       -0.0147386332        0.0086458707
O        -0.0047047658        0.0151103940       -0.0042375971
O         0.0043267921       -0.0037813614       -0.0012733981
O         0.0035430077       -0.0014359122        0.0042135423
O        -0.0136085316       -0.0000105245        0.0056196912
O         0.0090043740        0.0047322551       -0.0127590810
O        -0.0068553137       -0.0016158148       -0.0064233673
O         0.0024591303       -0.0015574124        0.0019814242
O        -0.0066420345       -0.0081018831       -0.0083959969
O         0.0040189997       -0.0180954100        0.0034414063
O         0.0065973340       -0.0014518567        0.0017288334
O         0.0009641342       -0.0013730084       -0.0042747335
O        -0.0035717332       -0.0129819660        0.0012182403
O         0.0019244355        0.0016734221       -0.0078007345
O        -0.0162017642       -0.0040909549        0.0037146080
O         0.0022362283       -0.0000731739        0.0005186343
O         0.0031836192        0.0128186888       -0.0048824883
O         0.0066502146       -0.0028575033        0.0049486571
O         0.0128093762       -0.0003547041       -0.0008211085
O         0.0025067904       -0.0058771213        0.0037176826
O        -0.0022097275       -0.0011978167        0.0048244756
O        -0.0105634163       -0.0077034215        0.0055246052
O         0.0078282115        0.0009319045       -0.0007380299
O        -0.0079676296       -0.0000748241       -0.0001499153
O        -0.0041932473        0.0065516667        0.0022741702
O         0.0132898179       -0.0208716763        0.0074710544
O         0.0002541873       -0.0008610488        0.0033600188
O        -0.0055349681        0.0002200692        0.0084637987
O         0.0030272284       -0.0033243073       -0.0007468204
O        -0.0096864292       -0.0049595894       -0.0016844602
O         0.0099582940        0.0002053385       -0.0002818455
O         0.0049261054        0.0066990620        0.0147572157
O         0.0027086498       -0.0337765983        0.0050997694
O         0.0034988398        0.0004345382        0.0041425052
O        -0.0032241749        0.0064512131       -0.0007456938
O         0.0069681112        0.0031052396        0.0041543067
O        -0.0015611201       -0.0138865151        0.0086193745
O         0.0008788293        0.0050457152       -0.0075563981
O         0.0218746540       -0.0054354209        0.0038550311
O        -0.0130538151       -0.0018521655        0.0021430792
O        -0.0015271424       -0.0124988324        0.0064865369
O        -0.0009437268       -0.0088170247        0.0088232595
O         0.0042776695        0.0003080516        0.0018692889
O        -0.0066498796       -0.0018244002       -0.0110353872
O         0.0025575338       -0.0044855278       -0.0275852965
O         0.0013819983       -0.0019849739        0.0062381491
O        -0.0209241861       -0.0005511121       -0.0004016838
O         0.0083031934       -0.0012805041        0.0047484821
O         0.0034803941       -0.0028755498        0.0127174769
O        -0.0020784606       -0.0008315473        0.0075624958
O         0.0037884621        0.0010020005       -0.0050870697
O         0.0066623870        0.0027689867       -0.0090379758
O        -0.0127388112       -0.0034389331       -0.0045178228
O         0.0038359867        0.0050441438       -0.0103751481
O         0.0079864896        0.0040160228        0.0082598857
O        -0.0104614011       -0.0092257601       -0.0078481835
O         0.0040463927        0.0187631544       -0.0055226203
O         0.0082070380        0.0027167268        0.0071066403
O        -0.0002296785        0.0102218974       -0.0126537811
O        -0.0015417289        0.0081680661        0.0000872260
O         0.0062178694       -0.0002300279       -0.0017937253
O        -0.0097841184       -0.0039768259       -0.0060472816
O        -0.0037050924       -0.0070160618        0.0036472657
O         0.0004312782        0.0014269676        0.0034543718
O        -0.0016223572        0.0102629472       -0.0022566118
O        -0.0033236080       -0.0064194181        0.0047748170
O        -0.0061520960        0.0045527924        0.0028908996
O        -0.0031512298       -0.0072297762        0.0073878660
O        -0.0020523992        0.0061611140        0.0017029247
O         0.0010066116        0.0122374784        0.0034013728
O         0.0030506035        0.0052597489        0.0059532834
O         0.0229775218       -0.0035358842        0.0110578245
O        -0.0008163435        0.0064274769       -0.0035512402
O        -0.0123638384       -0.0006821371        0.0015783752
O         0.0086441001       -0.0033349930       -0.0117184684
O        -0.0015438419       -0.0007177887        0.0080353828
O        -0.0067137649        0.0088724214       -0.0004623254
O         0.0018569102        0.0004473743        0.0055336890
O         0.0087585693       -0.0025836282        0.0039442140
O        -0.0042250491        0.0070125959        0.0010935082
O        -0.0058392839       -0.0109269589        0.0023099302
O         0.0014177351       -0.0249388734       -0.0026702818
O         0.0237534201        0.0024880266        0.0006373605
O        -0.0021210201        0.0055368780       -0.0054651651
O         0.0048401441       -0.0028294991       -0.0042451184
O         0.0020642267       -0.0121239520        0.0037733801
O        -0.0217863729        0.0008324770       -0.0062166800
O        -0.0025090640       -0.0050962194        0.0045610042
     192
 i =        2, E =     -5771.5307691375
Ti        -0.0021813945        0.0041099251        0.0029721903
Ti         0.0011563958       -0.0048255648       -0.0061002485
Ti        -0.0031966598       -0.0020948441       -0.0121095754
Ti         0.0013930182        0.0178244698        0.0046239982
Ti         0.0027902453       -0.0047644283        0.0028885391
Ti        -0.0048398995        0.0071895596       -0.0047376685
Ti        -0.0002902428        0.0047870288       -0.0062119424
Ti        -0.0003531629        0.0083232983        0.0064216912
Ti        -0.0062243119       -0.0091147396       -0.0033469054
Ti        -0.0014303191       -0.0006441130       -0.0038952247
Ti        -0.0092683302       -0.0002465165        0.0027287621
Ti         0.0032830113        0.0010407235       -0.0050877749
Ti         0.0051180932       -0.0046784459       -0.0039407463
Ti         0.0039551270        0.0077986652        0.0155304430
Ti        -0.0107671795        0.0091513828        0.0037135562
Ti        -0.0037212088        0.0145161095       -0.0095850120
Ti        -0.0008612258        0.0026941147       -0.0100799920
Ti        -0.0017339015        0.0044744563       -0.0073017958
Ti         0.0097332629        0.0042073805        0.0024303678
Ti         0.0006507192       -0.0030005655       -0.0122242472
Ti        -0.0091425717        0.0079985199       -0.0115027064
Ti        -0.0058071848       -0.0096843254       -0.0101649400
Ti         0.0042475855       -0.0017161980        0.0036715639
Ti        -0.0079270317        0.0092366240       -0.0001902301
Ti        -0.0055815839       -0.0020929087        0.0043242094
Ti        -0.0073563463       -0.0018191410        0.0055990283
Ti         0.0024504658        0.0057320540       -0.0038231846
Ti         0.0009265269        0.0097594873        0.0076820594
Ti         0.0062303952        0.0060073732        0.0063829947
Ti        -0.0011411107        0.0185036411       -0.0062186773
Ti         0.0015596765       -0.0006000131        0.0022752703
Ti        -0.0059250132       -0.0020531712        0.0041782966
Ti         0.0126564916        0.0001408505       -0.0095539271
Ti        -0.0048537070        0.0108467458       -0.0056716323
Ti         0.0069683730       -0.0047219870       -0.0026071327
Ti         0.0153546444       -0.0070663389       -0.0097956406
Ti         0.0024109409       -0.0009689206        0.0079066131
Ti        -0.0020145975        0.0014866848        0.0034190452
Ti        -0.0085853421        0.0053760614       -0.0048099230
Ti        -0.0029255154        0.0084478357       -0.0014030132
Ti        -0.0105896401        0.0006997507        0.0026504241
Ti         0.0044788943        0.0074977290        0.0057066634
Ti         0.0118708058       -0.0001753744        0.0035033059
Ti        -0.0035003696        0.0052443687        0.0017333658
Ti        -0.0004625496       -0.0038891978       -0.0093147951
Ti         0.0006840544        0.0020073971       -0.0028186713
Ti         0.0127499122        0.0032959075       -0.0091435995
Ti         0.0015225155        0.0130790345        0.0001224720
Ti        -0.0023227149        0.0065989460        0.0183876220
Ti        -0.0080919664        0.0047870918        0.0018791293
Ti        -0.0078647395        0.0042142151        0.0063582601
Ti        -0.0026428265       -0.0052566448       -0.0012327705
Ti         0.0079812443        0.0026194051       -0.0069966470
Ti         0.0053287613       -0.0096576160       -0.0036707654
Ti        -0.0042753594       -0.0025599150        0.0039507329
Ti         0.0075425163        0.0084046744       -0.0043260184
Ti        -0.0073580137        0.0020931114       -0.0010089846
Ti         0.0087938596       -0.0108754021        0.0003328438
Ti         0.0045137107        0.0056935321        0.0045623296
Ti        -0.0036557514       -0.0037611578        0.0038240501
Ti        -0.0035021252       -0.0024287328        0.0035678424
Ti        -0.0039016239       -0.0104563961        0.0002531140
Ti         0.0043714695        0.0024276926        0.0055485175
Ti        -0.0080894986        0.0077272395        0.0004685460
O        -0.0016720683        0.0118074865       -0.0012641356
O         0.0025301493        0.0008134039        0.0065378363
O         0.0022517756       -0.0046270310        0.0061263707
O         0.0079197022        0.0017215375        0.0011013935
O        -0.0016514584       -0.0042519725       -0.0062943860
O         0.0016001394       -0.0064665824        0.0049819520
O         0.0030080593       -0.0015350414       -0.0005341563
O         0.0070372638       -0.0017102210       -0.0004975325
O        -0.0016925581       -0.0050367257       -0.0037021813
O        -0.0036998335       -0.0149471005       -0.0016432949
O        -0.0076803025       -0.0003410970        0.0115137976
O        -0.0049339724       -0.0032505879       -0.0035961968
O        -0.0037692266        0.0015435900        0.0043478294
O        -0.0023363460       -0.0072701345       -0.0015589948
O         0.0073640481       -0.0004032079       -0.0000208097
O         0.0012291215       -0.0026433685        0.0036859354
O         0.0032211033       -0.0019127346        0.0001517454
O         0.0048931648       -0.0016699242       -0.0053169498
O        -0.0004443305        0.0034351411       -0.0014902831
O         0.0068622988        0.0026515043        0.0086339572
O         0.0005869872        0.0067320150        0.0081297804
O        -0.0017906702       -0.0069314834        0.0059906485
O        -0.0011334072       -0.0059074258        0.0008627687
O         0.0017379281        0.0081039523        0.0030577547
O        -0.0042150060       -0.0019972817        0.0059252130
O        -0.0042903840        0.0020669360        0.0066286903
O         0.0063491756       -0.0037130723       -0.0008643474
O         0.0023621130        0.0019926973       -0.0002238957
O         0.0000974834        0.0041621693       -0.0090265423
O        -0.0053489987        0.0009264103       -0.0010424744
O         0.0023527996       -0.0030696845       -0.0071929412
O         0.0008686484       -0.0003287468       -0.0095114269
O         0.0021471264       -0.0170661897       -0.0017627640
O        -0.0011346101        0.0038228631       -0.0037111607
O         0.0097458553        0.0009752802       -0.0045853320
O        -0.0003252564       -0.0009796793        0.0011607181
O         0.0015037633       -0.0039042568        0.0044871109
O        -0.0009335885        0.0019585627        0.0047274848
O        -0.0079813456       -0.0016362498       -0.0007016150
O        -0.0090464076       -0.0000054446        0.0002819880
O        -0.0048551409       -0.0089284106        0.0086807028
O        -0.0025750812       -0.0023104389       -0.0034104857
O         0.0015050709        0.0060212072        0.0000507266
O        -0.0015668242       -0.0143763433        0.0016849635
O        -0.0046452299        0.0028310869       -0.0030869165
O         0.0000357266       -0.0009259751        0.0027038895
O        -0.0029525891        0.0018232487       -0.0067374729
O         0.0114097672       -0.0006558704        0.0009572446
O        -0.0034898968       -0.0157895793       -0.0046510019
O         0.0043819633       -0.0059241055       -0.0088081076
O         0.0027479577       -0.0007233337       -0.0042494542
O         0.0029777450       -0.0039664995       -0.0026839257
O         0.0022353495       -0.0164037904       -0.0005321878
O         0.0033216696        0.0007005952       -0.0049294978
O        -0.0120712365       -0.0048710735        0.0057178821
O        -0.0050824241       -0.0000019927        0.0048375606
O         0.0015264846        0.0044659622        0.0046928752
O        -0.0003897004       -0.0005061687        0.0023847617
O         0.0057671316       -0.0050301494        0.0062062190
O        -0.0072276209       -0.0038070598       -0.0014505673
O         0.0034980024       -0.0033010211       -0.0019433134
O        -0.0067455932        0.0066299493       -0.0056880394
O        -0.0105544732       -0.0065509732        0.0039762467
O        -0.0075954865       -0.0044597157        0.0001470679
O        -0.0048470011        0.0035189684        0.0076724264
O         0.0019536928        0.0022617424       -0.0005595363
O        -0.0089395280        0.0029939672        0.0058778527
O         0.0028408536        0.0003754204        0.0003108939
O        -0.0008756898       -0.0107114474        0.0033841221
O        -0.0031434644        0.0060231444       -0.0042586484
O         0.0055399934        0.0011576357       -0.0030674381
O        -0.0077694774        0.0006454993        0.0045946692
O         0.0025929717       -0.0071636407        0.0039617178
O         0.0040574785        0.0039387971       -0.0020547657
O        -0.0059857464        0.0034241443        0.0004625778
O         0.0008979516        0.0042773170        0.0060989265
O        -0.0038640092       -0.0087167555        0.0062255584
O         0.0001088048       -0.0024611369        0.0033996767
O         0.0095016355       -0.0004172856        0.0021279566
O        -0.0077719412       -0.0013069740       -0.0010987109
O         0.0030238269       -0.0018555885        0.0055330169
O        -0.0015746175       -0.0123093433        0.0023611296
O        -0.0049079215        0.0026088428        0.0072000858
O        -0.0039348420        0.0011929276       -0.0000720161
O        -0.0014403153        0.0003654978       -0.0186396918
O         0.0024231713       -0.0015262561        0.0013532176
O         0.0035491573        0.0029970858       -0.0037524717
O         0.0104452247       -0.0003584925        0.0054734732
O        -0.0018264173        0.0060546797       -0.0061500895
O         0.0001303405        0.0019214996        0.0057356942
O         0.0012787280        0.0034808061        0.0003360568
O         0.0000874431       -0.0108566980        0.0037680444
O         0.0001838564       -0.0055086021        0.0021533928
O         0.0067927085        0.0034350558        0.0006870491
O         0.0030991933        0.0007389194        0.0029268637
O         0.0027545609        0.0004479018       -0.0057322896
O        -0.0004408914        0.0127299473       -0.0065461488
O         0.0034689914       -0.0011103396        0.0028898809
O         0.0079623810        0.0020594037       -0.0082098436
O         0.0026446150        0.0011273306       -0.0013191999
O         0.0019523567       -0.0063303221       -0.0024370263
O        -0.0002248864       -0.0064237637       -0.0041567946
O         0.0094006099       -0.0032727496        0.0076391051
O         0.0013628288       -0.0029686543       -0.0003030197
O         0.0001718524       -0.0029895161        0.0002616472
O        -0.0035977617       -0.0087752300       -0.0029831418
O        -0.0019804704        0.0066194888        0.0051925922
O        -0.0033633260       -0.0008823453        0.0044098697
O         0.0037416738       -0.0007079365        0.0019277811
O        -0.0003330055       -0.0011948968       -0.0009885282
O         0.0004136923       -0.0000764485       -0.0012209566
O         0.0136029414       -0.0063221828       -0.0017495530
O        -0.0008502198        0.0027309611        0.0058723978
O        -0.0026702930       -0.0031953031        0.0016035202
O         0.0059746266        0.0006074348       -0.0012557032
O        -0.0066724923        0.0047211085        0.0065784923
O        -0.0003418676        0.0059768176        0.0010230603
O        -0.0028550775        0.0034980381       -0.0008634023
O         0.0049089016       -0.0005271491       -0.0096376654
O        -0.0042151045        0.0099824632        0.0017526504
O        -0.0040377873        0.0035272143        0.0025900649
O        -0.0020503678       -0.0108705548       -0.0081476138
O         0.0124386816        0.0036975349        0.0024259952
O         0.0006603435        0.0026366147       -0.0000539804
O         0.0005570172        0.0008554725       -0.0013447845
O        -0.0004134369       -0.0023661388        0.0018185101
O        -0.0088938612       -0.0004625272       -0.0032037959
O         0.0008821786        0.0002660538        0.0022423550
     192
 i =        3, E =     -5771.5714340422
Ti        -0.0016316112        0.0007751618        0.0028080148
Ti         0.0042924319       -0.0017100232       -0.0021089085
Ti        -0.0030563449       -0.0042239688       -0.0072255807
Ti         0.0012922404        0.0133440677        0.0011911969
Ti         0.0037977160        0.0017329797        0.0005421303
Ti        -0.0063048124        0.0044122482       -0.0035272205
Ti        -0.0059050511        0.0007385206       -0.0031136373
Ti         0.0011239399        0.0008479973        0.0038044240
Ti        -0.0040401601       -0.0030945518       -0.0016331221
Ti         0.0017078112       -0.0029015717       -0.0039107369
Ti        -0.0064592042       -0.0016234757        0.0002129015
Ti         0.0007815790        0.0015707454       -0.0004539720
Ti         0.0066865146       -0.0056575329       -0.0036472239
Ti         0.0006828733        0.0069666599        0.0085727613
Ti        -0.0050187888        0.0010505807       -0.0028194585
Ti        -0.0020769680        0.0127687172       -0.0044208201
Ti        -0.0006495569        0.0004339782       -0.0043757849
Ti        -0.0009235346        0.0055996221        0.0004497643
Ti         0.0083338570        0.0060829120       -0.0017382248
Ti         0.0016720502       -0.0057613626       -0.0057884703
Ti        -0.0051367491       -0.0004461540       -0.0072428037
Ti        -0.0033113012       -0.0081921137       -0.0023675820
Ti         0.0052573418        0.0004714965        0.0059036314
Ti        -0.0086617571        0.0070600043       -0.0025741682
Ti        -0.0038085322       -0.0013063645        0.0038072723
Ti        -0.0084556866        0.0006007474       -0.0016272608
Ti         0.0053281217        0.0022076232       -0.0025411974
Ti        -0.0001008444        0.0050376244        0.0013727543
Ti         0.0022266610        0.0064539238        0.0031799892
Ti         0.0027962028        0.0109413562        0.0059730733
Ti        -0.0015070867        0.0015406660        0.0017157204
Ti        -0.0039202902       -0.0005232573        0.0021963793
Ti         0.0079355842        0.0020353856       -0.0042050114
Ti        -0.0036927585        0.0043891035       -0.0029157766
Ti         0.0033984744       -0.0022464512       -0.0075820774
Ti         0.0154059667       -0.0073244803       -0.0065829994
Ti        -0.0003348144        0.0012801716        0.0019123654
Ti        -0.0033018064       -0.0002655625        0.0051515576
Ti        -0.0049051757        0.0043646160       -0.0036303240
Ti        -0.0021149164        0.0100101609       -0.0013725483
Ti        -0.0072800658        0.0026953571        0.0055969467
Ti         0.0019608949        0.0062650088        0.0011198671
Ti         0.0075038240        0.0026558870       -0.0047131572
Ti        -0.0010835809        0.0051658121        0.0020700462
Ti         0.0025276502       -0.0046276870       -0.0058157748
Ti        -0.0050771587       -0.0021150220       -0.0011200487
Ti         0.0096355238        0.0025818538       -0.0034142821
Ti         0.0022702564        0.0087432338       -0.0011186284
Ti        -0.0027428391        0.0077035831        0.0099011279
Ti        -0.0023751474        0.0033346921        0.0009491801
Ti        -0.0049201918        0.0063364358        0.0038443388
Ti        -0.0055589948       -0.0047635991        0.0012390890
Ti         0.0018476306        0.0012009292       -0.0035031776
Ti         0.0027843012       -0.0033600620       -0.0025202153
Ti        -0.0007379803       -0.0030300736        0.0046673608
Ti         0.0060326949        0.0041791642       -0.0029518850
Ti        -0.0026209808        0.0013447982        0.0005931430
Ti         0.0054399553       -0.0105365476       -0.0001051925
Ti         0.0041088633        0.0045074229        0.0027602897
Ti        -0.0051851818       -0.0009455378        0.0042920171
Ti        -0.0042437292        0.0010369307        0.0041333610
Ti        -0.0030105672       -0.0099715777        0.0018051333
Ti         0.0045681515        0.0006444786        0.0016146373
Ti        -0.0043058621        0.0051424121       -0.0002278354
O        -0.0013108517        0.0038460291        0.0057723240
O        -0.0003946199       -0.0026087280        0.0037650781
O        -0.0045443469        0.0018369783        0.0042067348
O         0.0020544900        0.0013888390        0.0017643292
O         0.0023588709       -0.0009270361       -0.0031907905
O         0.0023072141       -0.0035220864        0.0031033306
O         0.0041076766       -0.0000164944        0.0021152898
O         0.0052794650        0.0007306794       -0.0003191646
O         0.0038460975       -0.0062524547       -0.0019035281
O         0.0003027358       -0.0033281965       -0.0001836488
O         0.0015084449        0.0010532995        0.0016937411
O         0.0013733443       -0.0009310041        0.0016167771
O         0.0000537598       -0.0013883772        0.0016582953
O        -0.0031650375       -0.0033175688       -0.0028794572
O         0.0031652604       -0.0071844871        0.0001229577
O         0.0045745981       -0.0015318914        0.0016626975
O        -0.0002124041       -0.0005608049       -0.0013729580
O         0.0032858328       -0.0009926820       -0.0053036958
O        -0.0034616719        0.0017602039        0.0010751761
O         0.0033769887        0.0016044773        0.0042036981
O         0.0025600073        0.0021978339        0.0033830017
O         0.0025855106       -0.0032941594        0.0058890825