     192
 i =        1, E =     -5771.4331317877
Ti        -0.0623398309        0.0931436047        0.0654916792
Ti         1.8638977100        1.9217006632        4.8960620150
Ti         0.0452006359        2.0279761552        2.5269122368
Ti         1.8610023125       -0.0407229240        7.1760303313
Ti        -0.0274491527        3.8329702672       -0.0494040921
Ti         1.9462763966       13.1889055747        4.8324765255
Ti        11.2898944726        1.9797528777        2.4496377623
Ti         5.6053844641       -0.0882554676        7.2218738979
Ti         1.9020233823        3.8200471518        7.2328531505
Ti         0.0305582429       13.3430610816        2.4736132145
Ti         5.6766835339        1.8268950674        4.8264739091
Ti        11.3015915302        0.1126378561       -0.0413325147
Ti         3.6802710267        0.0938085386        0.0516171771
Ti        13.1221518524        1.7713809555        4.7077609055
Ti        13.2611693278       -0.0457015986        7.1534485582
Ti         3.7530619690        1.8053783664        2.5163979765
Ti         1.9693395747        5.6383437446        4.8532834888
Ti         0.0050428515       11.5725716306        0.0031755075
Ti        -0.0166262406        5.7240500741        2.4874464499
Ti         1.9079532901       11.3235683689        7.3513418722
Ti         0.0916295294        7.5050359537        0.0527733888
Ti         2.0401860516        9.5167645741        4.9039771944
Ti         7.5009842231        1.9513332246        2.3554798829
Ti         9.4619159371       -0.1283959569        7.2280522752
Ti         1.9442984167        7.5738185074        7.1600933057
Ti         0.1328256004        9.5814308837        2.4835198393
Ti         9.3294325557        1.8079046876        4.7629724850
Ti         7.4664396510       -0.0621969759       -0.0770058693
Ti         3.7321556754        3.7817232171       -0.0045097705
Ti        13.2312549691       13.1303983925        4.7440716378
Ti        11.3784546312        5.7269597040        2.3776695899
Ti         5.6721409203       11.3289732458        7.1522946118
Ti        13.1725282008        3.6774487135        7.2436044050
Ti         3.7744420288       13.1660241246        2.4449477359
Ti         5.6738299176        5.7219635795        4.8461350778
Ti        11.2217178707       11.3880258512        0.1028111573
Ti        11.2869413041       13.3399992960        2.3551278228
Ti         5.6479176398        3.7266811216        7.1320114365
Ti         3.8901549844       11.4212469461        0.0440904309
Ti        13.2821446648        5.5834089175        4.8940513073
Ti         5.7924071433       13.2055841512        4.8082113567
Ti        11.2748260016        3.7905154341       -0.0772530913
Ti        13.0896641673       11.3836060520        7.2599815673
Ti         3.7959893727        5.6194244060        2.3900977960
Ti         3.8046313401        7.5524874747        0.0496306029
Ti        13.2976043951        9.4226290891        4.8374054261
Ti         7.5288744491        5.6734470123        2.3905673195
Ti         9.4220607509       11.1502200635        7.1771647665
Ti        13.3042638077        7.5418934203        7.2181862485
Ti         3.8908979072        9.4515762239        2.3375094259
Ti         9.5155759235        5.5565087714        4.7080984409
Ti         7.5326760917       11.3474118221        0.0641365424
Ti        11.4013988236        9.4540388151        2.4159735863
Ti         5.6571827429        7.6032617727        7.1960950314
Ti         5.7729594268        9.4258051874        4.7469191557
Ti        11.2955489392        7.5739806673        0.0114293555
Ti         9.4235862808        3.6465623436        7.1685848932
Ti         7.5407255090       13.3031792285        2.4109975693
Ti         7.4667935194        3.8005039108       -0.0670819186
Ti         9.5062934023       13.2439495014        4.7791216854
Ti         7.5891299412        7.5400638672       -0.0560706646
Ti         9.5213001771        9.3938150250        4.7600792500
Ti         7.6415148941        9.4229112492        2.3250547638
Ti         9.5137777988        7.3617124911        7.1413831823
O         0.0514768080        0.0803917777        2.0879761234
O         1.6842190109        1.9395646637        6.7323814071
O        -0.0727612919        1.9986411095        4.4059945087
O         1.8007502406        0.1430544963        9.2346756694
O         1.8153365728       -0.0195079075        5.2673383953
O        -0.1437440495        2.0063471131        0.4932792738
O         1.8648590747        2.1651700915        2.8392694939
O        -0.0757055659       -0.0482011723        7.6258646238
O        -0.0318223178        3.9100807258        2.0822859685
O         1.9907551916       13.2786337063        6.8166766086
O        11.2900181448        1.8304817089        4.3097018853
O         5.6364643494       -0.0181823540        9.2573207683
O         2.1021875564        3.7571894059        5.1829544129
O         0.0442896659       13.3727581220        0.4434672112
O         5.6334363087        1.8655716951        2.8421382797
O        11.2779486470        0.0635554269        7.5731452064
O         3.7101364042        0.1064829170        7.6986047247
O        13.1887407369        1.8781512896        2.8402392280
O        13.1736277903       -0.0949871566        9.2109039202
O         3.7089632827        1.6642755467        4.3680898664
O         1.9084895726        5.6202245056        6.7365616479
O         0.0557251881       11.4496999199        1.9136821652
O         0.0771028991        5.7220911091        0.4713692632
O         1.9083678770       11.3145156509        5.2403153438
O         0.1160759768        7.7261746628        1.9475700788
O         2.1435948544        9.4594694436        6.7755847360
O         7.4552803610        1.8708665018        4.3591602602
O         9.4179629751        0.0296844994        9.1959476261
O         1.8320276802        7.5675416886        5.2786133662
O         0.1031750668        9.5675885444        0.2703448284
O         9.3714596295        2.0346127613        2.8429102379
O         7.4786811402       -0.1569670960        7.7070288902
O         3.7474486088        0.0615064145        2.0344379648
O        13.2219318734        1.8472994990        6.7781368783
O         0.0006017026        5.6023450763        4.4833788228
O         1.9314013089       11.3615301965        9.2576061170
O        13.1784634028       -0.0273794914        5.1361723365
O         3.7062471448        1.9517626657        0.4380968153
O         1.9493462737        5.7900844946        2.9198082202
O         0.1060087391       11.4238979192        7.5786159523
O        11.3438608272        2.0060882685        0.2889487757
O         5.8142004137       -0.0928306118        5.2793515627
O         5.5767587795        1.8293517251        6.7778752594
O        11.2727551630        0.1403490135        1.8916210335
O         1.9112599114        3.8306809987        9.1961273292
O        -0.0258497779       13.1632170401        4.4522829243
O         0.0230194652        3.7918091926        7.6846729673
O         1.8892722973       13.2385580865        2.8715877101
O         3.9515660686        3.8436317573        2.0674188817
O        13.1139676820       13.2713603103        6.7280355403
O        11.3658456006        5.6605643110        4.3799726214
O         5.6923324628       11.4622504499        9.2202248131
O        13.1786796326        3.8044486772        5.2286518590
O         3.6430102604       13.3069675900        0.5144323421
O         5.7466945250        5.8985639555        2.7474726165
O        11.3003331799       11.3355444568        7.6577155642
O        11.2543769577       13.2660622964        0.4152668578
O         5.5139566239        3.7145801802        5.1876123490
O         3.7913016132       11.3708545997        7.6919249622
O        13.2817115655        5.9188879491        2.8706818179
O         5.5280135123       13.2022052100        6.7750128637
O        11.5261477672        3.8329771121        1.9161600368
O        13.2364571823       11.4141236624        9.2013375438
O         3.8621820507        5.7127651734        4.3976066786
O         5.7633881002        5.6320875711        6.7307338414
O        11.1328329973       11.4661350362        1.9911695052
O        13.2129974931        3.9019608064        9.1348036739
O         3.7928194818       13.2128365875        4.3841765275
O        11.3634635059        5.7394969382        0.4153256233
O         5.7979929463       11.3045321849        5.2416785309
O         3.7385760493        3.7251852641        7.6568921604
O        13.2135143562       13.2210997552        2.7243996710
O        13.0633831246       11.4151072237        5.1591525329
O         3.7149645083        5.6717413694        0.4331105844
O         5.6971258744       13.1750566373        2.8707754940
O        11.2932332079        3.5644944481        7.5617723450
O         3.9556069389       11.4115491459        1.9613701568
O        13.2150084990        5.6384474589        6.8875922233
O        11.2819374339       13.3358003069        4.3178895037
O         5.6674907532        3.8102230064        9.1378637344
O         3.7825739649        7.6463145531        1.9247921965
O        13.3068426130        9.5898280762        6.7474402721
O         7.5675779837        5.5319695497        4.3178128733
O         9.4245202862       11.3185070348        9.2241193332
O        13.2707905659        7.5879385731        5.4120719374
O         3.8041678482        9.5218303702        0.3657266445
O         9.5626001922        5.5847680566        2.7973779226
O         7.5163610983       11.3348371871        7.5755540152
O        11.3499459149        9.4910353859        0.4137920735
O         5.7364622460        7.5700798923        5.1658410763
O         5.5666136122        9.4178613999        6.7593429745
O        11.2380917239        7.6071800865        2.0172091053
O         9.4415632707        3.9435854569        9.1442772865
O         7.5872172337       13.0550605565        4.4512224003
O         7.4968448983        3.6524368186        7.5499597034
O         9.4310426825       13.4511003636        2.8572314654
O         7.4462565313       -0.0448245173        2.0285469365
O         9.2262996042        1.8105818419        6.7170185760
O         0.0773604478        9.3781712418        4.4352616823
O         1.9415458104        7.5767435189        9.1903403966
O         9.3201330810       -0.0314840630        5.2030700506
O         7.6214117588        1.9063206693        0.4471235027
O         1.9661884650        9.6862154896        2.7740268058
O         0.0374799833        7.5687875943        7.6275593956
O         7.5159842300        3.7924597743        1.9431282058
O         9.5069767041       13.2150546713        6.7332096583
O        11.4370481126        9.2323785580        4.3745243909
O         5.6669406607        7.6854586544        9.1150840048
O         9.4758664269        3.6862622079        5.1912750555
O         7.5673191730       13.2205957826        0.4266584266
O         5.7445679785        9.3960555735        2.7217674992
O        11.3015451365        7.6370637143        7.6103072872
O         3.7888911139        7.3738430799        7.6108100430
O        13.3230690192        9.6078638266        2.8121335464
O        13.2631107906        7.6657172429        9.3374202140
O         3.8488310511        9.4199135861        4.2890496564
O         9.6008931082        5.5312661425        6.7495008816
O         7.6400713533       11.3265774264        1.9470219458
O         7.3554583472        5.6981800869        0.3773048101
O         9.5599865994       11.2256223861        5.2066093738
O         7.8394718108        7.5943343547        1.9181225629
O         9.4564669826        9.4257603308        6.8039778474
O         7.5517307843        9.3753043404        4.3206515739
O         9.4563563229        7.4433477948        9.2071919650
O         9.3693271145        7.4802756497        5.2484353147
O         7.5203061257        9.4730765152        0.3696115865
O         9.5719501199        9.5027981292        2.8754048541
O         7.5967807905        7.5410468252        7.5946198252
     192
 i =        2, E =     -5771.5307691375
Ti        -0.0593203506        0.1135373845        0.0323588429
Ti         1.8566075754        1.9280235065        4.8770496726
Ti         0.0337229989        2.0083914265        2.4880135073
Ti         1.8425453397       -0.0597207601        7.1948865214
Ti        -0.0509072140        3.8348265658       -0.0289506106
Ti         1.9460826125       13.2075056831        4.8408930838
Ti        11.3022078388        1.9570412688        2.4290947731
Ti         5.6023654907       -0.0753166785        7.2147009800
Ti         1.9039363611        3.8037781344        7.2474862422
Ti         0.0097890689       13.3324227897        2.4575010797
Ti         5.6872107263        1.8518192625        4.8095529178
Ti        11.2875561982        0.0927004443       -0.0301505618
Ti         3.6616957668        0.0806211339        0.0349487872
Ti        13.1618997719        1.7959598979        4.7405702601
Ti        13.2625034649       -0.0388832905        7.1797060805
Ti         3.7649215817        1.8409763722        2.5004610077
Ti         1.9609520499        5.6545931511        4.8327282630
Ti         0.0059701227       11.5606441557       -0.0049349272
Ti        -0.0130640304        5.7091601585        2.4750548599
Ti         1.8907867626       11.3499661209        7.3181520819
Ti         0.0564062484        7.4990478101        0.0323183623
Ti         2.0228978919        9.5154069336        4.8616126814
Ti         7.4991821417        1.9533077698        2.3371075586
Ti         9.4781755661       -0.1040478297        7.2234787688
Ti         1.9378863095        7.5710740960        7.1772419283
Ti         0.1008909078        9.5540879320        2.4959358638
Ti         9.3541552255        1.8241930677        4.7910183651
Ti         7.4667632143       -0.0361781498       -0.0574259222
Ti         3.7404699762        3.7723493499        0.0059703967
Ti        13.2278804721       13.1255859459        4.7807857783
Ti        11.3615623752        5.7165470409        2.3871397510
Ti         5.6744768663       11.3213319233        7.1774989350
Ti        13.1659118526        3.7041369105        7.2307752485
Ti         3.7808014950       13.1981266892        2.4466251325
Ti         5.7005645177        5.6962038386        4.8290885356
Ti        11.2201456484       11.3869591164        0.0786642659
Ti        11.3049149580       13.3161714783        2.3471971099
Ti         5.6606948188        3.7219820701        7.1453631962
Ti         3.8735246667       11.3974711365        0.0203484953
Ti        13.2723927944        5.5921863419        4.8646206719
Ti         5.7694326026       13.2016883653        4.8061124000
Ti        11.2696599265        3.7996570376       -0.0444272921
Ti        13.1181913849       11.3584500814        7.2517111496
Ti         3.8066560541        5.6371849090        2.4005693639
Ti         3.7902432855        7.5777944488        0.0250805357
Ti        13.2783564641        9.4316120063        4.8413764290
Ti         7.5005279395        5.6791303385        2.4119230414
Ti         9.4131769145       11.1842364269        7.1675530531
Ti        13.2959400263        7.5293614098        7.1860142421
Ti         3.8616531882        9.4374867183        2.3554387909
Ti         9.5199837620        5.5693791627        4.7303559464
Ti         7.5650323463       11.3547184870        0.0377827904
Ti        11.3917518706        9.4562073409        2.4377231740
Ti         5.6651566205        7.5819181396        7.2186126749
Ti         5.7678773828        9.4167310247        4.7618936936
Ti        11.2964571149        7.5868739232        0.0054710102
Ti         9.4354370642        3.6661744909        7.1746604057
Ti         7.5410677356       13.3178773140        2.3911288700
Ti         7.4750110515        3.7998005033       -0.0565466084
Ti         9.4944287987       13.2386975291        4.7917896266
Ti         7.5990923989        7.5398295623       -0.0623023511
Ti         9.5204917579        9.4218887054        4.7802819443
Ti         7.6129089710        9.4172192700        2.3342869484
Ti         9.5123188300        7.3925117879        7.1538547283
O         0.0539262631        0.0630541576        2.0166939191
O         1.7705342807        1.9185582655        6.7548000115
O        -0.0235183115        1.9694234039        4.3838870824
O         1.7969474521        0.1148766927        9.2033341205
O         1.8216277229       -0.0082394647        5.2770577484
O        -0.1017039117        2.0092230729        0.4585203326
O         1.8609068637        2.0627819455        2.8246699887
O        -0.0546908595       -0.0494270463        7.6480682086
O        -0.0586567283        3.8894976585        2.0654648170
O         1.9797961484       13.2540236104        6.8238911606
O        11.2970899685        1.8436281757        4.3284109329
O         5.6065942122        0.0208909291        9.2363103109
O         2.0397779930        3.7799487577        5.2068961991
O         0.0344927718       13.3742082376        0.4467337757
O         5.6332763769        1.9339292116        2.8302370426
O        11.3056384751        0.0688772427        7.5872120464
O         3.7030124668        0.0616332957        7.6770501312
O        13.1856233020        1.9017901787        2.8537179894
O        13.1827960256       -0.0013140602        9.1824733212
O         3.7249849355        1.7073730006        4.3821053864
O         1.8735001984        5.6328344213        6.7609481833
O         0.0298591821       11.4245856807        1.9082133963
O         0.0367669002        5.7088216349        0.4659660523
O         1.8863456676       11.3327702015        5.2548971605
O         0.1260375562        7.7020490614        1.9332948252
O         2.0488672462        9.4648628072        6.7818598185
O         7.5012510285        1.9106621536        4.3718416002
O         9.4163485274        0.0001950114        9.1619500809
O         1.9048770956        7.5614225501        5.2791620445
O         0.0700153946        9.5378297793        0.2659813993
O         9.3806598768        1.9641286481        2.8306184277
O         7.4771517042       -0.1237311633        7.6861512278
O         3.7380314030        0.0731239658        2.0234381677
O        13.2709177799        1.8651694709        6.7793531224
O         0.0077662948        5.5909876498        4.4524978936
O         1.8957627589       11.3605549531        9.2360089710
O        13.2243951990       -0.0003054416        5.1807585371
O         3.7137783317        1.9337315148        0.4552899254
O         1.9423731088        5.7356709830        2.8790926115
O         0.0601828021       11.4315358325        7.6201430838
O        11.3182196939        1.9852445940        0.3213944938
O         5.7777186430       -0.0601563071        5.2598785147
O         5.6301970414        1.8218426010        6.7647342046
O        11.3023138963        0.1283395203        1.9113012835
O         1.8896522549        3.8195789448        9.2268216872
O        -0.0158588874       13.2125019967        4.4008417877
O         0.0049358815        3.7634188090        7.6867153137
O         1.8785836048       13.2366377809        2.8724023095
O         3.8918325022        3.8556247306        2.0475717460
O        13.1578034724       13.2405816621        6.7766496968
O        11.3674587085        5.6571160946        4.3929453440
O         5.6987657033       11.4407226904        9.2198246137
O        13.1563349054        3.8076361740        5.2324318351
O         3.6593422528       13.2954755472        0.4893044566
O         5.7163385768        5.8617552494        2.7689127970
O        11.3192707014       11.3329059698        7.6253023404
O        11.2804321838       13.2709849175        0.3953530419
O         5.5894215444        3.7197203652        5.2007464309
O         3.7978586146       11.3739747537        7.6725828681
O        13.2880169653        5.8859105704        2.8734052068
O         5.5305124546       13.2032149546        6.7969794536
O        11.4449708978        3.8081972696        1.9555460512
O        13.2559045978       11.4396271538        9.1848391129
O         3.8587409981        5.7193581507        4.3986638639
O         5.7424218657        5.6311772349        6.7216867699
O        11.2393928346       11.4128340557        1.9978478391
O        13.2107020355        3.8815906215        9.1399641956
O         3.7775922260       13.2206302788        4.4063795730
O        11.3975087033        5.7483639254        0.4147695499
O         5.7422607055       11.2884862368        5.2588082559
O         3.7554361021        3.7295262028        7.6704656960
O        13.2291834118       13.2783346043        2.7920307313
O        13.1087761782       11.3552503826        5.1704670087
O         3.7460276423        5.6803947697        0.4426096503
O         5.6943980363       13.2326057120        2.8615845428
O        11.3044669887        3.5866491683        7.5881933882
O         3.9216464021       11.4053841983        1.9757477036
O        13.2250230463        5.6536741231        6.8176689562
O        11.3006417704       13.2817535282        4.3317054443
O         5.6604088908        3.7840074819        9.1528078473
O         3.7573350726        7.6178770782        1.9277230154
O        13.3018524235        9.5489001965        6.7742011874
O         7.5887262461        5.5312668297        4.3210894074
O         9.4323170318       11.3019775072        9.1654898287
O        13.3103342464        7.5778684994        5.3444589426
O         3.7964324090        9.5136438302        0.3976376220
O         9.5107155700        5.5863509841        2.8086297030
O         7.5216590883       11.3139355158        7.5735127833
O        11.3647082120        9.4835865229        0.4774116594
O         5.7441307000        7.5479834883        5.1891568725
O         5.6232264472        9.4045024683        6.7623300825
O        11.3035898705        7.6187180213        1.9921928641
O         9.4216537852        3.9159661877        9.1402083483
O         7.5721770244       13.1017368167        4.3978158847
O         7.5185116865        3.7000032942        7.5845376753
O         9.4259337068       13.3519986107        2.8321195658
O         7.4863917466       -0.0055010461        2.0201754759
O         9.2950717457        1.8272621808        6.7483091502
O         0.0503574782        9.4544325514        4.4146169319
O         1.9167009045        7.6503448847        9.1987475874
O         9.3727922252       -0.0203611944        5.2078135651
O         7.5367563973        1.9146931935        0.4218178368
O         1.9332422068        9.6201241860        2.7733728079
O         0.0267676620        7.5848317193        7.6290448296
O         7.4849032190        3.8159717929        1.9400349220
O         9.4853465988       13.2251537669        6.7542603399
O        11.4097617031        9.2625477925        4.3928786515
O         5.6687807246        7.6244905457        9.1423504350
O         9.4531057942        3.7128332391        5.2051506053
O         7.5812792352       13.2505204076        0.4370689841
O         5.7296299425        9.4200672893        2.7651938144
O        11.3332078696        7.6080494985        7.6545346870
O         3.7858942218        7.4177746652        7.5950401649
O        13.2883898535        9.6005161434        2.8214986850
O        13.2641338289        7.6499674175        9.2442586967
O         3.8441287560        9.3967884549        4.3132617290
O         9.5343828287        5.5659869183        6.7570803649
O         7.6569286780       11.3257838836        1.9410116047
O         7.4396409697        5.6917977475        0.4182540147
O         9.5477052875       11.2511151041        5.2129001637
O         7.7695900950        7.5620125521        1.9315772853
O         9.4753229998        9.4171618629        6.8276157945
O         7.5761937580        9.3873515065        4.3353673310
O         9.4583641964        7.5018884813        9.1773826624
O         9.4236076071        7.4923606820        5.2413235733
O         7.5329994791        9.4570413002        0.3800681463
O         9.5282393433        9.4946854340        2.8706731144
O         7.5887043264        7.5131483102        7.6055819354
     192
 i =        3, E =     -5771.5714340422
Ti        -0.0467368754        0.1163201624        0.0179218688
Ti         1.8609717403        1.9177517403        4.8595260349
Ti         0.0318010891        2.0021550514        2.4680926361
Ti         1.8457513860       -0.0517601099        7.2022329537
Ti        -0.0601993657        3.8201763486       -0.0265878861
Ti         1.9423783072       13.2266212631        4.8270685717
Ti        11.3258750971        1.9414248749        2.4324870540
Ti         5.6028922242       -0.0470167191        7.2092064208
Ti         1.8987558502        3.7923810927        7.2445418823
Ti         0.0062596684       13.3339101421        2.4461048634
Ti         5.6906574079        1.8606978784        4.8079885646
Ti        11.2866962548        0.0808556492       -0.0247646424
Ti         3.6728642692        0.0802963193        0.0258935847
Ti        13.1812407443        1.8150428283        4.7727943164
Ti        13.2461128502       -0.0248601923        7.2040783605
Ti         3.7732499170        1.8484419865        2.4780931508
Ti         1.9548191227        5.6625811455        4.8242162677
Ti        -0.0036341144       11.5507738561       -0.0238730746
Ti        -0.0047154040        5.6978505868        2.4646452271
Ti         1.8750760742       11.3583404279        7.2806707165
Ti         0.0316764126        7.5057777425        0.0091614237
Ti         2.0004447413        9.5173494624        4.8445328065
Ti         7.5138740170        1.9469510472        2.3344809900
Ti         9.4670091982       -0.0858851649        7.2156132464
Ti         1.9259682738        7.5680566355        7.1743901185
Ti         0.0808080349        9.5349016772        2.5006783148
Ti         9.3690762123        1.8394390622        4.7881395223
Ti         7.4678529591       -0.0134216495       -0.0544306821
Ti         3.7460593668        3.7813533463        0.0151406241
Ti        13.2311512110       13.1490520930        4.7835259994
Ti        11.3623292849        5.7083778339        2.3951311839
Ti         5.6726109511       11.3179232740        7.1913582407
Ti        13.1791832563        3.7232707782        7.2190814198
Ti         3.7810637787       13.2232830685        2.4250182248
Ti         5.7015906789        5.6760642709        4.8390430214
Ti        11.2382285976       11.3912615668        0.0486309090
Ti        11.3244099315       13.2931908213        2.3734721789
Ti         5.6643558653        3.7303425297        7.1645188811
Ti         3.8497221650       11.3893755063        0.0201571947
Ti        13.2706092645        5.5949825473        4.8446382085
Ti         5.7405647058       13.2031196271        4.8019123823
Ti        11.2721548224        3.7967082387       -0.0199963448
Ti        13.1620225948       11.3347038517        7.2597801345
Ti         3.7987930305        5.6367332845        2.3974617181
Ti         3.7784059003        7.5917996250        0.0166890791
Ti        13.2771172864        9.4460400478        4.8395524966
Ti         7.5037269338        5.6876470353        2.4017153069
Ti         9.4210361200       11.2111567725        7.1639137133
Ti        13.2937050563        7.5255145181        7.1767655083
Ti         3.8385837880        9.4359619113        2.3768049740
Ti         9.5022857328        5.5832971341        4.7479791614
Ti         7.5720192288       11.3468924521        0.0240779762
Ti        11.3987282598        9.4587065245        2.4275771286
Ti         5.6721997499        7.5559803666        7.2311918554
Ti         5.7566754622        9.4121021313        4.7792229922
Ti        11.3173710686        7.5930226176       -0.0001987573
Ti         9.4334254461        3.6922061705        7.1851368645
Ti         7.5491549611       13.3259397178        2.3849000323
Ti         7.4817658370        3.8022161095       -0.0409897420
Ti         9.4858850638       13.2299963443        4.7885946403
Ti         7.6023154656        7.5409809161       -0.0538326054
Ti         9.5142910169        9.4278785303        4.7755627445
Ti         7.6029370093        9.4356231742        2.3597387885
Ti         9.5078479888        7.4361617148        7.1655885707
O         0.0412929520        0.0740402660        1.9828126009
O         1.8243111093        1.9125731419        6.7651106408
O         0.0043480192        1.9289993417        4.3821718102
O         1.8168660155        0.1137057284        9.1970445366
O         1.8131529091       -0.0112672800        5.2711738358
O        -0.0787825281        1.9947575190        0.4525153033
O         1.8658927169        2.0124467192        2.8120666045
O        -0.0416754447       -0.0587168799        7.6491112735
O        -0.0843131616        3.8731104113        2.0412771558
O         1.9447596375       13.2357505491        6.8166681023
O        11.2935151496        1.8548704153        4.3637761732
O         5.5928055800        0.0150913565        9.2119811299
O         1.9869685124        3.7850453237        5.2205256136
O         0.0116783938       13.3613395118        0.4441108849
O         5.6468629856        1.9670813779        2.8271084886
O        11.3027853420        0.0528469227        7.6008748528
O         3.7104771975        0.0310938475        7.6711537583
O        13.2001317617        1.8998638938        2.8662381435
O        13.1936043555        0.0591521972        9.1679253663
O         3.7495547450        1.7508843223        4.3887550691
O         1.8620219669        5.6479723367        6.7857099824
O        -0.0028476337       11.4054550684        1.9070210328