#     Step Nr.          Time[fs]        Kin.[a.u.]          Temp[K]            Pot.[a.u.]        Cons Qty[a.u.]        UsedTime[s]
     53757        49470.000000         0.089304193       400.000000000     -1446.000297259     -1445.910993066        35.500672949
     53758        49471.000000         0.089725846       401.888616683     -1446.000715173     -1445.910989327         4.486258472
     53759        49472.000000         0.089731144       401.912344528     -1446.000714128     -1445.910982985         3.623194644
     53760        49473.000000         0.089393710       400.400956808     -1446.000367670     -1445.910973959         3.316449426
     53761        49474.000000         0.088785464       397.676575761     -1445.999753100     -1445.910967636         3.274380777
     53762        49475.000000         0.087987255       394.101338475     -1445.998949228     -1445.910961974         3.308807162
     53763        49476.000000         0.087097863       390.117687126     -1445.998052698     -1445.910954836         3.369637734
     53764        49477.000000         0.089304193       400.000000000     -1445.997161905     -1445.907857712         3.277217179
     53765        49478.000000         0.088426341       396.068038905     -1445.996287357     -1445.907861016         3.280840426
     53766        49479.000000         0.087536802       392.083729735     -1445.995402072     -1445.907865269         3.277222179
     53767        49480.000000         0.089304193       400.000000000     -1445.994476139     -1445.905171947         3.276251970
     53768        49481.000000         0.088338314       395.673760688     -1445.993502894     -1445.905164580         3.354384686
     53769        49482.000000         0.087397118       391.458073448     -1445.992556635     -1445.905159517         3.276569432
     53770        49483.000000         0.089304193       400.000000000     -1445.991699374     -1445.902395181         3.273576500
     53771        49484.000000         0.088477618       396.297711921     -1445.990881241     -1445.902403623         3.304193127
     53772        49485.000000         0.087590714       392.325205154     -1445.990004308     -1445.902413594         3.275691573
     53773        49486.000000         0.089304193       400.000000000     -1445.988968991     -1445.899664799         3.293323190
     53774        49487.000000         0.088055468       394.406869708     -1445.987714534     -1445.899659067         3.273045687
     53775        49488.000000         0.089304193       400.000000000     -1445.986308438     -1445.897004245         3.314137023
     53776        49489.000000         0.087809772       393.306382138     -1445.984809469     -1445.896999697         3.276629829
     53777        49490.000000         0.089304193       400.000000000     -1445.983280460     -1445.893976268         3.287725673
     53778        49491.000000         0.087700117       392.815229881     -1445.981677842     -1445.893977725         3.272056162
     53779        49492.000000         0.089304193       400.000000000     -1445.980013294     -1445.890709102         3.352081200
     53780        49493.000000         0.087607659       392.401103631     -1445.978307551     -1445.890699892         3.306651580
     53781        49494.000000         0.089304193       400.000000000     -1445.976684771     -1445.887380579         3.270819051
     53782        49495.000000         0.087792359       393.228385915     -1445.975170252     -1445.887377894         3.275842402
     53783        49496.000000         0.089304193       400.000000000     -1445.973811939     -1445.884507747         3.277221126
     53784        49497.000000         0.088102815       394.618942954     -1445.972607442     -1445.884504627         3.378480338
     53785        49498.000000         0.087094512       390.102680397     -1445.971597476     -1445.884502964         3.279887361
     53786        49499.000000         0.089304193       400.000000000     -1445.970814339     -1445.881510147         3.278133363
     53787        49500.000000         0.088738866       397.467862481     -1445.970248004     -1445.881509137         3.278065362
     53788        49501.000000         0.088417252       396.027326492     -1445.969923477     -1445.881506225         3.278475653
     53789        49502.000000         0.088398673       395.944110816     -1445.969900166     -1445.881501493         3.291533483
     53790        49503.000000         0.088721887       397.391810872     -1445.970223464     -1445.881501576         3.274685424
     53791        49504.000000         0.089378227       400.331603673     -1445.970885341     -1445.881507114         3.274824032
     53792        49505.000000         0.090319432       404.547330854     -1445.971831442     -1445.881512010         3.277036491
     53793        49506.000000         0.091504212       409.854049011     -1445.973015772     -1445.881511559         3.278729231
     53794        49507.000000         0.089304193       400.000000000     -1445.974440095     -1445.885135902         3.273097698
     53795        49508.000000         0.090975471       407.485776380     -1445.976113876     -1445.885138405         3.702791237
     53796        49509.000000         0.089304193       400.000000000     -1445.978045905     -1445.888741712         3.276095710
     53797        49510.000000         0.091367259       409.240625464     -1445.980115263     -1445.888748004         3.439761537
     53798        49511.000000         0.089304193       400.000000000     -1445.982301422     -1445.892997229         3.298982356
     53799        49512.000000         0.091509903       409.879535885     -1445.984513253     -1445.893003350         3.273727590
     53800        49513.000000         0.089304193       400.000000000     -1445.986714365     -1445.897410173         7.804724490
     53801        49514.000000         0.091281946       408.858499489     -1445.988705742     -1445.897423796         3.250381752
     53802        49515.000000         0.089304193       400.000000000     -1445.990387717     -1445.901083524         3.251746879
     53803        49516.000000         0.090590597       405.761899820     -1445.991668385     -1445.901077787         3.254148554
     53804        49517.000000         0.089304193       400.000000000     -1445.992637931     -1445.903333739         3.314484853
     53805        49518.000000         0.090009581       403.159484409     -1445.993344828     -1445.903335247         3.246608998
     53806        49519.000000         0.090442392       405.098079252     -1445.993784886     -1445.903342494         3.281371146
     53807        49520.000000         0.090518569       405.439279283     -1445.993868036     -1445.903349467         3.249610777
     53808        49521.000000         0.090180284       403.924076857     -1445.993527778     -1445.903347494         3.253931777
     53809        49522.000000         0.089455051       400.675707388     -1445.992794678     -1445.903339627         3.316442342
     53810        49523.000000         0.088436531       396.113678501     -1445.991767874     -1445.903331343         3.291175844
     53811        49524.000000         0.087234721       390.730684283     -1445.990559198     -1445.903324477         3.251696743
     53812        49525.000000         0.089304193       400.000000000     -1445.989270655     -1445.899966462         3.240458234
     53813        49526.000000         0.087979551       394.066833149     -1445.987942420     -1445.899962869         3.239200163
     53814        49527.000000         0.089304193       400.000000000     -1445.986658259     -1445.897354066         3.282384658
     53815        49528.000000         0.088118825       394.690649539     -1445.985465990     -1445.897347166         3.285077313
     53816        49529.000000         0.087110994       390.176504473     -1445.984451174     -1445.897340179         3.243230703
     53817        49530.000000         0.089304193       400.000000000     -1445.983691461     -1445.894387269         3.243641173
     53818        49531.000000         0.088816495       397.815565804     -1445.983202836     -1445.894386341         3.244834631
     53819        49532.000000         0.088592791       396.813580499     -1445.982984053     -1445.894391261         3.245823625
     53820        49533.000000         0.088577178       396.743646438     -1445.982976448     -1445.894399270         3.313626883
     53821        49534.000000         0.088653898       397.087280781     -1445.983060891     -1445.894406993         3.247458712
     53822        49535.000000         0.088707413       397.326980444     -1445.983119059     -1445.894411646         3.250133564
     53823        49536.000000         0.088669351       397.156499271     -1445.983080468     -1445.894411117         3.244660595
     53824        49537.000000         0.088519182       396.483881015     -1445.982928945     -1445.894409762         3.245011561
     53825        49538.000000         0.088247593       395.267411438     -1445.982658600     -1445.894411008         3.259347875
     53826        49539.000000         0.087830423       393.398877951     -1445.982243986     -1445.894413563         3.240316502
     53827        49540.000000         0.087247511       390.787971119     -1445.981660462     -1445.894412951         3.239685146
     53828        49541.000000         0.089304193       400.000000000     -1445.980925991     -1445.891621798         3.274047536
     53829        49542.000000         0.088442226       396.139186561     -1445.980060341     -1445.891618116         3.245601198
     53830        49543.000000         0.087530730       392.056532767     -1445.979139979     -1445.891609249         3.247394781
     53831        49544.000000         0.089304193       400.000000000     -1445.978304480     -1445.889000287         3.307035379
     53832        49545.000000         0.088688781       397.243524036     -1445.977683319     -1445.888994539         3.241213519
     53833        49546.000000         0.088368328       395.808191991     -1445.977366637     -1445.888998309         3.246972026
     53834        49547.000000         0.088352203       395.735970047     -1445.977354922     -1445.889002719         3.281631478
     53835        49548.000000         0.088609209       396.887117001     -1445.977612349     -1445.889003140         3.248102422
     53836        49549.000000         0.089130443       399.221763342     -1445.978133195     -1445.889002752         3.321423714
     53837        49550.000000         0.089918447       402.751289119     -1445.978922596     -1445.889004150         3.247851319
     53838        49551.000000         0.090949276       407.368446516     -1445.979957699     -1445.889008424         3.242127389
     53839        49552.000000         0.089304193       400.000000000     -1445.981173272     -1445.891869079         3.245620132
     53840        49553.000000         0.090595868       405.785507962     -1445.982470629     -1445.891874761         3.254182770
     53841        49554.000000         0.089304193       400.000000000     -1445.983785415     -1445.894481222         3.257463015
     53842        49555.000000         0.090541070       405.540061884     -1445.985026002     -1445.894484932         3.250500981
     53843        49556.000000         0.089304193       400.000000000     -1445.986163591     -1445.896859399         3.293104549
     53844        49557.000000         0.090307089       404.492044354     -1445.987166629     -1445.896859541         3.252971907
     53845        49558.000000         0.091170579       408.359682470     -1445.988033898     -1445.896863319         3.250771101
     53846        49559.000000         0.089304193       400.000000000     -1445.988698765     -1445.899394572         3.266848135
     53847        49560.000000         0.089699853       401.772189475     -1445.989095577     -1445.899395724         3.344485266
     53848        49561.000000         0.089848725       402.439001213     -1445.989236874     -1445.899388148         3.259836214
     53849        49562.000000         0.089825508       402.335008268     -1445.989204877     -1445.899379369         3.259513955
     53850        49563.000000         0.089745079       401.974763558     -1445.989120559     -1445.899375480         3.255968527
     53851        49564.000000         0.089681262       401.688922730     -1445.989057872     -1445.899376610         3.256428814
     53852        49565.000000         0.089650884       401.552853674     -1445.989028847     -1445.899377964         3.368876998
     53853        49566.000000         0.089672786       401.650956188     -1445.989047269     -1445.899374483         3.253748784
     53854        49567.000000         0.089800287       402.222043668     -1445.989171731     -1445.899371443         3.255411445
     53855        49568.000000         0.090079681       403.473467307     -1445.989452085     -1445.899372405         3.265784116
     53856        49569.000000         0.090503267       405.370740724     -1445.989882383     -1445.899379116         3.331488833
     53857        49570.000000         0.091001347       407.601679267     -1445.990387364     -1445.899386017         3.288629842
     53858        49571.000000         0.091492174       409.800127073     -1445.990880837     -1445.899388663         3.262656014
     53859        49572.000000         0.089304193       400.000000000     -1445.991311113     -1445.902006920         3.259207895
     53860        49573.000000         0.089647626       401.538262765     -1445.991654713     -1445.902007087         3.256957171
     53861        49574.000000         0.089878090       402.570527068     -1445.991887569     -1445.902009479         3.284793867
     53862        49575.000000         0.089925423       402.782535711     -1445.991940019     -1445.902014596         3.255377711
     53863        49576.000000         0.089715761       401.843446608     -1445.991735591     -1445.902019829         3.330186314
     53864        49577.000000         0.089178396       399.436545500     -1445.991201121     -1445.902022726         3.251936414
     53865        49578.000000         0.088265397       395.347156881     -1445.990287498     -1445.902022101         3.281503662
     53866        49579.000000         0.089304193       400.000000000     -1445.988991657     -1445.899687464         3.248306725
     53867        49580.000000         0.087621752       392.464226728     -1445.987306777     -1445.899685025         3.252929026
     53868        49581.000000         0.089304193       400.000000000     -1445.985288775     -1445.895984582         3.346113961
     53869        49582.000000         0.089304193       400.000000000     -1445.982937924     -1445.893633732         3.257203535
     53870        49583.000000         0.089304193       400.000000000     -1445.980329502     -1445.891025309         3.251813398
     53871        49584.000000         0.089304193       400.000000000     -1445.977596483     -1445.888292290         3.246299681
     53872        49585.000000         0.089304193       400.000000000     -1445.974934905     -1445.885630712         3.249013998
     53873        49586.000000         0.089304193       400.000000000     -1445.972551261     -1445.883247068         3.300680474
     53874        49587.000000         0.087347133       391.234185281     -1445.970590951     -1445.883243818         3.254331476
     53875        49588.000000         0.089304193       400.000000000     -1445.969153103     -1445.879848910         3.250539084
     53876        49589.000000         0.088392160       395.914937409     -1445.968238045     -1445.879845885         3.246475500
     53877        49590.000000         0.088061612       394.434389589     -1445.967903296     -1445.879841684         3.248362593
     53878        49591.000000         0.088377349       395.848598314     -1445.968214050     -1445.879836702         3.616738043
     53879        49592.000000         0.089373353       400.309775282     -1445.969210099     -1445.879836745         3.309734377
     53880        49593.000000         0.091022295       407.695504664     -1445.970866132     -1445.879843837         3.245586930
     53881        49594.000000         0.089304193       400.000000000     -1445.973071832     -1445.883767639         3.241944445
     53882        49595.000000         0.089304193       400.000000000     -1445.975607474     -1445.886303281         3.241591416
     53883        49596.000000         0.089304193       400.000000000     -1445.978285131     -1445.888980939         3.263124266
     53884        49597.000000         0.089304193       400.000000000     -1445.980898115     -1445.891593922         3.328563429
     53885        49598.000000         0.089304193       400.000000000     -1445.983288409     -1445.893984216         3.243088269
     53886        49599.000000         0.091339404       409.115859408     -1445.985333038     -1445.893993634         3.254077407
     53887        49600.000000         0.089304193       400.000000000     -1445.986933073     -1445.897628881         3.297050456
     53888        49601.000000         0.090331809       404.602768398     -1445.987968360     -1445.897636551         3.266360646
     53889        49602.000000         0.090756279       406.504000625     -1445.988396548     -1445.897640269         3.315268051
     53890        49603.000000         0.090532522       405.501774699     -1445.988172291     -1445.897639769         3.263192076
     53891        49604.000000         0.089709883       401.817114955     -1445.987341277     -1445.897631394         3.237261579
     53892        49605.000000         0.088419813       396.038797035     -1445.986040422     -1445.897620609         3.241691509
     53893        49606.000000         0.089304193       400.000000000     -1445.984431216     -1445.895127024         3.237554014
     53894        49607.000000         0.087495125       391.897051986     -1445.982615516     -1445.895120391         3.243420538
     53895        49608.000000         0.089304193       400.000000000     -1445.980744870     -1445.891440677         3.328977917
     53896        49609.000000         0.087504524       391.939152830     -1445.978930057     -1445.891425533         3.235169423
     53897        49610.000000         0.089304193       400.000000000     -1445.977397893     -1445.888093700         3.240814059
     53898        49611.000000         0.088183116       394.978617329     -1445.976272976     -1445.888089860         3.280141960
     53899        49612.000000         0.087533649       392.069606260     -1445.975624936     -1445.888091287         3.233964602
     53900        49613.000000         0.087358359       391.284469067     -1445.975449732     -1445.888091372         7.146922899
     53901        49614.000000         0.087629843       392.500465821     -1445.975722143     -1445.888092300         3.275815940
     53902        49615.000000         0.088306304       395.530384811     -1445.976401640     -1445.888095336         3.237989221
     53903        49616.000000         0.089328135       400.107239141     -1445.977427077     -1445.888098942         3.242803079
     53904        49617.000000         0.090621990       405.902512653     -1445.978724398     -1445.888102407         3.322500828
     53905        49618.000000         0.089304193       400.000000000     -1445.980207914     -1445.890903721         3.245436800
     53906        49619.000000         0.090837848       406.869354500     -1445.981749895     -1445.890912047         3.283359846
     53907        49620.000000         0.089304193       400.000000000     -1445.983253763     -1445.893949571         3.244712345
     53908        49621.000000         0.090676517       406.146740913     -1445.984625703     -1445.893949186         3.240518251
     53909        49622.000000         0.089304193       400.000000000     -1445.985886888     -1445.896582695         3.237661640
     53910        49623.000000         0.090428216       405.034583574     -1445.987015069     -1445.896586853         3.319060803
     53911        49624.000000         0.091396070       409.369670116     -1445.987987434     -1445.896591364         3.236192180
     53912        49625.000000         0.089304193       400.000000000     -1445.988744512     -1445.899440320         3.240500827
     53913        49626.000000         0.089851621       402.451971595     -1445.989287233     -1445.899435612         3.238147776
     53914        49627.000000         0.090274729       404.347105219     -1445.989703596     -1445.899428867         3.237378616
     53915        49628.000000         0.090645606       406.008289589     -1445.990071954     -1445.899426348         3.325533406
     53916        49629.000000         0.091022036       407.694347281     -1445.990448179     -1445.899426143         3.229741872
     53917        49630.000000         0.091429162       409.517892382     -1445.990855108     -1445.899425946         3.225590248
     53918        49631.000000         0.089304193       400.000000000     -1445.991296547     -1445.901992354         3.228700597
     53919        49632.000000         0.089793544       402.191838770     -1445.991784652     -1445.901991109         3.274137670
     53920        49633.000000         0.090342279       404.649662323     -1445.992335512     -1445.901993233         3.236919561
     53921        49634.000000         0.090900595       407.150402777     -1445.992902267     -1445.902001672         3.287365709
     53922        49635.000000         0.091372291       409.263161255     -1445.993383666     -1445.902011375         3.230449293
     53923        49636.000000         0.089304193       400.000000000     -1445.993657999     -1445.904353806         3.217009197
     53924        49637.000000         0.089320258       400.071958898     -1445.993669904     -1445.904349646         3.240192694
     53925        49638.000000         0.089120216       399.175953340     -1445.993460232     -1445.904340017         3.220754257
     53926        49639.000000         0.088787546       397.685900740     -1445.993121106     -1445.904333560         3.299992009
     53927        49640.000000         0.088406786       395.980452031     -1445.992738695     -1445.904331908         3.225910986
     53928        49641.000000         0.088016168       394.230841338     -1445.992349078     -1445.904332911         3.235124134
     53929        49642.000000         0.087618426       392.449326920     -1445.991952680     -1445.904334254         3.234265000
     53930        49643.000000         0.087220485       390.666919803     -1445.991552031     -1445.904331546         3.229151035
     53931        49644.000000         0.089304193       400.000000000     -1445.991200553     -1445.901896361         3.279526706
     53932        49645.000000         0.089113859       399.147482670     -1445.991000445     -1445.901886586         3.228071025
     53933        49646.000000         0.089191792       399.496549543     -1445.991073119     -1445.901881327         3.268582844
     53934        49647.000000         0.089618356       401.407160520     -1445.991498227     -1445.901879871         3.230398587
     53935        49648.000000         0.090402784       404.920668719     -1445.992287220     -1445.901884436         3.226338509
     53936        49649.000000         0.091484960       409.767815093     -1445.993379558     -1445.901894598         3.228831048
     53937        49650.000000         0.089304193       400.000000000     -1445.994652124     -1445.905347932         3.320507619
     53938        49651.000000         0.090618077       405.884982998     -1445.995970114     -1445.905352037         3.226179042
     53939        49652.000000         0.089304193       400.000000000     -1445.997289069     -1445.907984876         3.229191872
     53940        49653.000000         0.090575351       405.693608884     -1445.998560739     -1445.907985389         3.244389655
     53941        49654.000000         0.089304193       400.000000000     -1445.999787754     -1445.910483561         3.235423781
     53942        49655.000000         0.090402209       404.918097084     -1446.000895671     -1445.910493461         3.289909457
     53943        49656.000000         0.091264883       408.782076991     -1446.001770453     -1445.910505570         3.273126974
     53944        49657.000000         0.089304193       400.000000000     -1446.002245148     -1445.912940955         3.232271362
     53945        49658.000000         0.089280726       399.894889958     -1446.002223331     -1445.912942605         3.235547771
     53946        49659.000000         0.088762127       397.572049772     -1446.001700330     -1445.912938202         3.235288190
     53947        49660.000000         0.087787947       393.208625570     -1446.000721272     -1445.912933324         3.225187182
     53948        49661.000000         0.089304193       400.000000000     -1445.999366517     -1445.910062324         3.281487361
     53949        49662.000000         0.087639874       392.545397183     -1445.997693617     -1445.910053742         3.247442722
     53950        49663.000000         0.089304193       400.000000000     -1445.995841350     -1445.906537158         3.235874258
     53951        49664.000000         0.087346792       391.232659994     -1445.993880776     -1445.906533984         3.239675549
     53952        49665.000000         0.089304193       400.000000000     -1445.991904256     -1445.902600063         3.272168348
     53953        49666.000000         0.087267823       390.878950329     -1445.989868029     -1445.902600206         3.323327138
     53954        49667.000000         0.089304193       400.000000000     -1445.987837283     -1445.898533090         3.235905369
     53955        49668.000000         0.087319309       391.109559521     -1445.985843877     -1445.898524569         3.243034665
     53956        49669.000000         0.089304193       400.000000000     -1445.984030439     -1445.894726246         3.262556893
     53957        49670.000000         0.087678087       392.716553709     -1445.982405154     -1445.894727067         3.234280790
     53958        49671.000000         0.089304193       400.000000000     -1445.980995384     -1445.891691191         3.255503172
     53959        49672.000000         0.088061413       394.433498753     -1445.979752985     -1445.891691572         3.234625314
     53960        49673.000000         0.089304193       400.000000000     -1445.978687827     -1445.889383634         3.241142552
     53961        49674.000000         0.088400358       395.951659876     -1445.977784391     -1445.889384033         3.272070751
     53962        49675.000000         0.087652768       392.603147038     -1445.977038176     -1445.889385409         3.240173535
     53963        49676.000000         0.089304193       400.000000000     -1445.976437905     -1445.887133712         3.240235096
     53964        49677.000000         0.088825081       397.854023976     -1445.975958240     -1445.887133158         3.318897428
     53965        49678.000000         0.088460174       396.219576644     -1445.975596049     -1445.887135876         3.234545000
     53966        49679.000000         0.088188968       395.004826643     -1445.975330419     -1445.887141451         3.232752038
     53967        49680.000000         0.087944465       393.909682568     -1445.975091100     -1445.887146634         3.229795274
     53968        49681.000000         0.087662822       392.648180997     -1445.974811565     -1445.887148743         3.238704127
     53969        49682.000000         0.087314182       391.086594854     -1445.974464399     -1445.887150218         3.311627351
     53970        49683.000000         0.089304193       400.000000000     -1445.974027363     -1445.884723170         3.231083545
     53971        49684.000000         0.088702775       397.306205935     -1445.973428617     -1445.884725842         3.227552496
     53972        49685.000000         0.087912521       393.766598834     -1445.972635017     -1445.884722497         3.232682775
     53973        49686.000000         0.089304193       400.000000000     -1445.971698649     -1445.882394456         3.224430976
     53974        49687.000000         0.088290630       395.460179233     -1445.970680622     -1445.882389991         3.272960152
     53975        49688.000000         0.087264944       390.866055322     -1445.969652143     -1445.882387199         3.259168709
     53976        49689.000000         0.089304193       400.000000000     -1445.968687045     -1445.879382852         3.228273435
     53977        49690.000000         0.088482752       396.320709027     -1445.967856119     -1445.879373366         3.238000332
     53978        49691.000000         0.087901668       393.717989378     -1445.967272844     -1445.879371176         3.633162887
     53979        49692.000000         0.087625647       392.481670196     -1445.966996303     -1445.879370656         3.341868416
     53980        49693.000000         0.087665214       392.658896295     -1445.967032796     -1445.879367582         3.299192831
     53981        49694.000000         0.088062132       394.436721622     -1445.967419019     -1445.879356887         3.229579309
     53982        49695.000000         0.088904359       398.209117610     -1445.968257088     -1445.879352729         3.224301768
     53983        49696.000000         0.090210746       404.060519677     -1445.969572553     -1445.879361807         3.232613960
     53984        49697.000000         0.089304193       400.000000000     -1445.971231822     -1445.881927630         3.289410236