 DBCSR| CPU Multiplication driver                                           XSMM (U)
 DBCSR| Multrec recursion limit                                              512 (U)
 DBCSR| Multiplication stack size                                           1000 (D)
 DBCSR| Maximum elements for images                                    UNLIMITED (U)
 DBCSR| Multiplicative factor virtual images                                   1 (U)
 DBCSR| Use multiplication densification                                       T (D)
 DBCSR| Multiplication size stacks                                             3 (U)
 DBCSR| Use memory pool for CPU allocation                                     F (U)
 DBCSR| Number of 3D layers                                               SINGLE (U)
 DBCSR| Use MPI memory allocation                                              F (U)
 DBCSR| Use RMA algorithm                                                      F (U)
 DBCSR| Use Communication thread                                               T (U)
 DBCSR| Communication thread load                                             87 (D)
 DBCSR| MPI: My process id                                                     0
 DBCSR| MPI: Number of processes                                             128
 DBCSR| OMP: Current number of threads                                         1
 DBCSR| OMP: Max number of threads                                             1
 DBCSR| Split modifier for TAS multiplication algorithm                  1.0E+00 (U)


  **** **** ******  **  PROGRAM STARTED AT               2025-06-16 15:22:56.161
 ***** ** ***  *** **   PROGRAM STARTED ON                             nid005154
 **    ****   ******    PROGRAM STARTED BY                                cahart
 ***** **    ** ** **   PROGRAM PROCESS ID                                 89849
  **** **  *******  **  PROGRAM STARTED IN /mnt/lustre/a2fs-work2/work/e05/e05/c
                                           ahart/postdoc2/work/group/tio2/anatas
                                           e/cell-441/geo-opt/mp-390/hole/from-n
                                           eutral/pbe-u-o/u-3.5

 CP2K| version string:                                       CP2K version 2024.3
 CP2K| source code revision number:                                  git:6712648
 CP2K| cp2kflags: omp libint fftw3 libxc libgrpp elpa parallel scalapack cosma x
 CP2K|            smm plumed2 spglib mkl sirius libvori libbqb libvdwxc hdf5
 CP2K| is freely available from                            https://www.cp2k.org/
 CP2K| Program compiled at                       Thu 12 Sep 2024 10:20:47 AM BST
 CP2K| Program compiled on                                                  ln04
 CP2K| Program compiled for                                                local
 CP2K| Data directory path    /mnt/lustre/a2fs-work1/work/y07/shared/apps/core/c
 CP2K| Input file name                                                 input.inp

 GLOBAL| Force Environment number                                              1
 GLOBAL| Basis set file name                                        BASIS_MOLOPT
 GLOBAL| Potential file name                                      GTH_POTENTIALS
 GLOBAL| MM Potential file name                                     MM_POTENTIAL
 GLOBAL| Coordinate file name                                         system.xyz
 GLOBAL| Method name                                                        CP2K
 GLOBAL| Project name                                                       tio2
 GLOBAL| Run type                                                        GEO_OPT
 GLOBAL| FFT library                                                       FFTW3
 GLOBAL| Diagonalization library                                            ELPA
 GLOBAL| DGEMM library                                                      BLAS
 GLOBAL| Minimum number of eigenvectors for ELPA usage                        16
 GLOBAL| Orthonormality check for eigenvectors                          DISABLED
 GLOBAL| Matrix multiplication library                                     COSMA
 GLOBAL| All-to-all communication in single precision                          F
 GLOBAL| FFTs using library dependent lengths                                  F
 GLOBAL| Grid backend                                                       AUTO
 GLOBAL| Global print level                                               MEDIUM
 GLOBAL| MPI I/O enabled                                                       T
 GLOBAL| Total number of message passing processes                           128
 GLOBAL| Number of threads for this process                                    1
 GLOBAL| This output is from process                                           0
 GLOBAL| Stack size for threads created by OpenMP (OMP_STACKSIZE)        default
 GLOBAL| CPU model name                          AMD EPYC 7742 64-Core Processor
 GLOBAL| CPUID                                                              1002

 MEMORY| system memory details [Kb]
 MEMORY|                        rank 0           min           max       average
 MEMORY| MemTotal            263341712     263341712     263341712     263341712
 MEMORY| MemFree             234617664     234617664     234617664     234617664
 MEMORY| Buffers                     0             0             0             0
 MEMORY| Cached                1750148       1750148       1750148       1750148
 MEMORY| Slab                  6046348       6046348       6046348       6046348
 MEMORY| SReclaimable           906196        906196        906196        906196
 MEMORY| MemLikelyFree       237274008     237274008     237274008     237274008


 *** Fundamental physical constants (SI units) ***

 *** Literature: B. J. Mohr and B. N. Taylor,
 ***             CODATA recommended values of the fundamental physical
 ***             constants: 2006, Web Version 5.1
 ***             http://physics.nist.gov/constants

 Speed of light in vacuum [m/s]                             2.99792458000000E+08
 Magnetic constant or permeability of vacuum [N/A**2]       1.25663706143592E-06
 Electric constant or permittivity of vacuum [F/m]          8.85418781762039E-12
 Planck constant (h) [J*s]                                  6.62606896000000E-34
 Planck constant (h-bar) [J*s]                              1.05457162825177E-34
 Elementary charge [C]                                      1.60217648700000E-19
 Electron mass [kg]                                         9.10938215000000E-31
 Electron g factor [ ]                                     -2.00231930436220E+00
 Proton mass [kg]                                           1.67262163700000E-27
 Fine-structure constant                                    7.29735253760000E-03
 Rydberg constant [1/m]                                     1.09737315685270E+07
 Avogadro constant [1/mol]                                  6.02214179000000E+23
 Boltzmann constant [J/K]                                   1.38065040000000E-23
 Atomic mass unit [kg]                                      1.66053878200000E-27
 Bohr radius [m]                                            5.29177208590000E-11

 *** Conversion factors ***

 [u] -> [a.u.]                                              1.82288848426455E+03
 [Angstrom] -> [Bohr] = [a.u.]                              1.88972613288564E+00
 [a.u.] = [Bohr] -> [Angstrom]                              5.29177208590000E-01
 [a.u.] -> [s]                                              2.41888432650478E-17
 [a.u.] -> [fs]                                             2.41888432650478E-02
 [a.u.] -> [J]                                              4.35974393937059E-18
 [a.u.] -> [N]                                              8.23872205491840E-08
 [a.u.] -> [K]                                              3.15774647902944E+05
 [a.u.] -> [kJ/mol]                                         2.62549961709828E+03
 [a.u.] -> [kcal/mol]                                       6.27509468713739E+02
 [a.u.] -> [Pa]                                             2.94210107994716E+13
 [a.u.] -> [bar]                                            2.94210107994716E+08
 [a.u.] -> [atm]                                            2.90362800883016E+08
 [a.u.] -> [eV]                                             2.72113838565563E+01
 [a.u.] -> [Hz]                                             6.57968392072181E+15
 [a.u.] -> [1/cm] (wave numbers)                            2.19474631370540E+05
 [a.u./Bohr**2] -> [1/cm]                                   5.14048714338585E+03
 

 CELL_TOP| Volume [angstrom^3]:                                      2198.132028
 CELL_TOP| Vector a [angstrom    15.120     0.000     0.000   |a| =    15.120000
 CELL_TOP| Vector b [angstrom     0.000    15.120     0.000   |b| =    15.120000
 CELL_TOP| Vector c [angstrom     0.000     0.000     9.615   |c| =     9.615020
 CELL_TOP| Angle (b,c), alpha [degree]:                                90.000000
 CELL_TOP| Angle (a,c), beta  [degree]:                                90.000000
 CELL_TOP| Angle (a,b), gamma [degree]:                                90.000000
 CELL_TOP| Requested initial symmetry:                       MONOCLINIC_GAMMA_AB
 CELL_TOP| Numerically orthorhombic:                                         YES
 CELL_TOP| Periodicity                                                       XYZ

 *** WARNING in atoms_input.F:123 :: Overwriting coordinates. Active    ***
 *** coordinates read from &COORD section. Active coordinates READ from ***
 *** &COORD section                                                     ***


 GENERATE|  Preliminary Number of Bonds generated:                             0
 GENERATE|  Achieved consistency in connectivity generation.

 CELL| Volume [angstrom^3]:                                          2198.132028
 CELL| Vector a [angstrom]:      15.120     0.000     0.000   |a| =    15.120000
 CELL| Vector b [angstrom]:       0.000    15.120     0.000   |b| =    15.120000
 CELL| Vector c [angstrom]:       0.000     0.000     9.615   |c| =     9.615020
 CELL| Angle (b,c), alpha [degree]:                                    90.000000
 CELL| Angle (a,c), beta  [degree]:                                    90.000000
 CELL| Angle (a,b), gamma [degree]:                                    90.000000
 CELL| Requested initial symmetry:                           MONOCLINIC_GAMMA_AB
 CELL| Numerically orthorhombic:                                             YES
 CELL| Periodicity                                                           XYZ

 CELL_REF| Volume [angstrom^3]:                                      2198.132028
 CELL_REF| Vector a [angstrom    15.120     0.000     0.000   |a| =    15.120000
 CELL_REF| Vector b [angstrom     0.000    15.120     0.000   |b| =    15.120000
 CELL_REF| Vector c [angstrom     0.000     0.000     9.615   |c| =     9.615020
 CELL_REF| Angle (b,c), alpha [degree]:                                90.000000
 CELL_REF| Angle (a,c), beta  [degree]:                                90.000000
 CELL_REF| Angle (a,b), gamma [degree]:                                90.000000
 CELL_REF| Requested initial symmetry:                       MONOCLINIC_GAMMA_AB
 CELL_REF| Numerically orthorhombic:                                         YES
 CELL_REF| Periodicity                                                       XYZ

 *******************************************************************************
 *******************************************************************************
 **                                                                           **
 **     #####                         ##              ##                      **
 **    ##   ##            ##          ##              ##                      **
 **   ##     ##                       ##            ######                    **
 **   ##     ##  ##   ##  ##   #####  ##  ##   ####   ##    #####    #####    **
 **   ##     ##  ##   ##  ##  ##      ## ##   ##      ##   ##   ##  ##   ##   **
 **   ##  ## ##  ##   ##  ##  ##      ####     ###    ##   ######   ######    **
 **    ##  ###   ##   ##  ##  ##      ## ##      ##   ##   ##       ##        **
 **     #######   #####   ##   #####  ##  ##  ####    ##    #####   ##        **
 **           ##                                                    ##        **
 **                                                                           **
 **                                                ... make the atoms dance   **
 **                                                                           **
 **            Copyright (C) by CP2K developers group (2000-2024)             **
 **                      J. Chem. Phys. 152, 194103 (2020)                    **
 **                                                                           **
 *******************************************************************************

 DFT| Spin unrestricted (spin-polarized) Kohn-Sham calculation               UKS
 DFT| Multiplicity                                                             2
 DFT| Number of spin states                                                    2
 DFT| Charge                                                                   1
 DFT| Self-interaction correction (SIC)                                       NO
 DFT| Cutoffs: density                                              1.000000E-10
 DFT|          gradient                                             1.000000E-10
 DFT|          tau                                                  1.000000E-10
 DFT|          cutoff_smoothing_range                               0.000000E+00
 DFT| XC density smoothing                                                  NONE
 DFT| XC derivatives                                                          PW

 DFT+U| Method                                                          MULLIKEN
 DFT+U| Check atomic kind information for details

 FUNCTIONAL| PBE:
 FUNCTIONAL| J.P.Perdew, K.Burke, M.Ernzerhof, Phys. Rev. Letter, vol. 77, n 18,
 FUNCTIONAL|  pp. 3865-3868, (1996) {spin polarized}                            


 QS| Method:                                                                 GPW
 QS| Density plane wave grid type                        NON-SPHERICAL FULLSPACE
 QS| Number of grid levels:                                                    4
 QS| Density cutoff [a.u.]:                                                300.0
 QS| Multi grid cutoff [a.u.]: 1) grid level                               300.0
 QS|                           2) grid level                               100.0
 QS|                           3) grid level                                33.3
 QS|                           4) grid level                                11.1
 QS| Grid level progression factor:                                          3.0
 QS| Relative density cutoff [a.u.]:                                        20.0
 QS| Interaction thresholds: eps_pgf_orb:                                1.0E-06
 QS|                         eps_filter_matrix:                          0.0E+00
 QS|                         eps_core_charge:                            1.0E-14
 QS|                         eps_rho_gspace:                             1.0E-12
 QS|                         eps_rho_rspace:                             1.0E-12
 QS|                         eps_gvg_rspace:                             1.0E-06
 QS|                         eps_ppl:                                    1.0E-02
 QS|                         eps_ppnl:                                   1.0E-08


 ATOMIC KIND INFORMATION

  1. Atomic kind: Ti                                    Number of atoms:      64

     Orbital Basis Set                                    DZVP-MOLOPT-SR-GTH-q12

       Number of orbital shell sets:                                           1
       Number of orbital shells:                                               8
       Number of primitive Cartesian functions:                                6
       Number of Cartesian basis functions:                                   31
       Number of spherical basis functions:                                   26
       Norm type:                                                              2

       Normalised Cartesian orbitals:

                        Set   Shell   Orbital            Exponent    Coefficient

                          1       1    2s                7.884570       0.015554
                                                         3.894698       0.963603
                                                         1.513589      -0.631435
                                                         0.596768      -0.343022
                                                         0.222222      -0.006534
                                                         0.077078       0.007652

                          1       2    3s                7.884570      -0.009340
                                                         3.894698       0.212624
                                                         1.513589      -0.258368
                                                         0.596768      -0.226206
                                                         0.222222       0.039438
                                                         0.077078       0.107179

                          1       3    4s                7.884570       0.276563
                                                         3.894698       0.105452
                                                         1.513589       0.085149
                                                         0.596768       0.882541
                                                         0.222222      -0.696223
                                                         0.077078       0.156638

                          1       4    3px               7.884570      -2.034794
                                                         3.894698       0.782008
                                                         1.513589       1.253903
                                                         0.596768       0.347823
                                                         0.222222       0.016778
                                                         0.077078      -0.000433
                          1       4    3py               7.884570      -2.034794
                                                         3.894698       0.782008
                                                         1.513589       1.253903
                                                         0.596768       0.347823
                                                         0.222222       0.016778
                                                         0.077078      -0.000433
                          1       4    3pz               7.884570      -2.034794
                                                         3.894698       0.782008
                                                         1.513589       1.253903
                                                         0.596768       0.347823
                                                         0.222222       0.016778
                                                         0.077078      -0.000433

                          1       5    4px               7.884570       0.376572
                                                         3.894698      -0.182875
                                                         1.513589      -0.474776
                                                         0.596768      -0.081757
                                                         0.222222       0.064432
                                                         0.077078       0.047279
                          1       5    4py               7.884570       0.376572
                                                         3.894698      -0.182875
                                                         1.513589      -0.474776
                                                         0.596768      -0.081757
                                                         0.222222       0.064432
                                                         0.077078       0.047279
                          1       5    4pz               7.884570       0.376572
                                                         3.894698      -0.182875
                                                         1.513589      -0.474776
                                                         0.596768      -0.081757
                                                         0.222222       0.064432
                                                         0.077078       0.047279

                          1       6    4dx2              7.884570       3.047350
                                                         3.894698       3.289529
                                                         1.513589       1.060616
                                                         0.596768       0.249930
                                                         0.222222       0.038806
                                                         0.077078       0.002319
                          1       6    4dxy              7.884570       5.278165
                                                         3.894698       5.697631
                                                         1.513589       1.837041
                                                         0.596768       0.432892
                                                         0.222222       0.067214
                                                         0.077078       0.004017
                          1       6    4dxz              7.884570       5.278165
                                                         3.894698       5.697631
                                                         1.513589       1.837041
                                                         0.596768       0.432892
                                                         0.222222       0.067214
                                                         0.077078       0.004017
                          1       6    4dy2              7.884570       3.047350
                                                         3.894698       3.289529
                                                         1.513589       1.060616
                                                         0.596768       0.249930
                                                         0.222222       0.038806
                                                         0.077078       0.002319
                          1       6    4dyz              7.884570       5.278165
                                                         3.894698       5.697631
                                                         1.513589       1.837041
                                                         0.596768       0.432892
                                                         0.222222       0.067214
                                                         0.077078       0.004017
                          1       6    4dz2              7.884570       3.047350
                                                         3.894698       3.289529
                                                         1.513589       1.060616
                                                         0.596768       0.249930
                                                         0.222222       0.038806
                                                         0.077078       0.002319

                          1       7    5dx2              7.884570      -2.119015
                                                         3.894698      -1.237751
                                                         1.513589      -0.746777
                                                         0.596768      -0.071514
                                                         0.222222       0.004086
                                                         0.077078       0.017595
                          1       7    5dxy              7.884570      -3.670241
                                                         3.894698      -2.143848
                                                         1.513589      -1.293455
                                                         0.596768      -0.123865
                                                         0.222222       0.007077
                                                         0.077078       0.030475
                          1       7    5dxz              7.884570      -3.670241
                                                         3.894698      -2.143848
                                                         1.513589      -1.293455
                                                         0.596768      -0.123865
                                                         0.222222       0.007077
                                                         0.077078       0.030475
                          1       7    5dy2              7.884570      -2.119015
                                                         3.894698      -1.237751
                                                         1.513589      -0.746777
                                                         0.596768      -0.071514
                                                         0.222222       0.004086
                                                         0.077078       0.017595
                          1       7    5dyz              7.884570      -3.670241
                                                         3.894698      -2.143848
                                                         1.513589      -1.293455
                                                         0.596768      -0.123865
                                                         0.222222       0.007077
                                                         0.077078       0.030475
                          1       7    5dz2              7.884570      -2.119015
                                                         3.894698      -1.237751
                                                         1.513589      -0.746777
                                                         0.596768      -0.071514
                                                         0.222222       0.004086
                                                         0.077078       0.017595

                          1       8    5fx3              7.884570      -0.342058
                                                         3.894698       0.375798
                                                         1.513589      -0.706469
                                                         0.596768      -0.229994
                                                         0.222222      -0.012723
                                                         0.077078       0.003932
                          1       8    5fx2y             7.884570      -0.764866
                                                         3.894698       0.840310
                                                         1.513589      -1.579712
                                                         0.596768      -0.514282
                                                         0.222222      -0.028450
                                                         0.077078       0.008792
                          1       8    5fx2z             7.884570      -0.764866
                                                         3.894698       0.840310
                                                         1.513589      -1.579712
                                                         0.596768      -0.514282
                                                         0.222222      -0.028450
                                                         0.077078       0.008792
                          1       8    5fxy2             7.884570      -0.764866
                                                         3.894698       0.840310
                                                         1.513589      -1.579712
                                                         0.596768      -0.514282
                                                         0.222222      -0.028450
                                                         0.077078       0.008792
                          1       8    5fxyz             7.884570      -1.324787
                                                         3.894698       1.455460
                                                         1.513589      -2.736142
                                                         0.596768      -0.890763
                                                         0.222222      -0.049276
                                                         0.077078       0.015229
                          1       8    5fxz2             7.884570      -0.764866
                                                         3.894698       0.840310
                                                         1.513589      -1.579712
                                                         0.596768      -0.514282
                                                         0.222222      -0.028450
                                                         0.077078       0.008792
                          1       8    5fy3              7.884570      -0.342058
                                                         3.894698       0.375798
                                                         1.513589      -0.706469
                                                         0.596768      -0.229994
                                                         0.222222      -0.012723
                                                         0.077078       0.003932
                          1       8    5fy2z             7.884570      -0.764866
                                                         3.894698       0.840310
                                                         1.513589      -1.579712
                                                         0.596768      -0.514282
                                                         0.222222      -0.028450
                                                         0.077078       0.008792
                          1       8    5fyz2             7.884570      -0.764866
                                                         3.894698       0.840310
                                                         1.513589      -1.579712
                                                         0.596768      -0.514282
                                                         0.222222      -0.028450
                                                         0.077078       0.008792
                          1       8    5fz3              7.884570      -0.342058
                                                         3.894698       0.375798
                                                         1.513589      -0.706469
                                                         0.596768      -0.229994
                                                         0.222222      -0.012723
                                                         0.077078       0.003932

       Atomic covalent radius [Angstrom]:                                  1.320

       Atomic van der Waals radius [Angstrom]:                             1.760

     GTH Potential information for                                   GTH-PBE-q12

       Description:                       Goedecker-Teter-Hutter pseudopotential
                                           Goedecker et al., PRB 54, 1703 (1996)
                                          Hartwigsen et al., PRB 58, 3641 (1998)
                                                      Krack, TCA 114, 145 (2005)

       Gaussian exponent of the core charge distribution:               3.462604
       Electronic configuration (s p d ...):                           4   6   2

       Parameters of the local part of the GTH pseudopotential:

                          rloc        C1          C2          C3          C4
                        0.380000    8.711442   -0.700287

       Parameters of the non-local part of the GTH pseudopotential:

                   l      r(l)      h(i,j,l)

                   0    0.337771    2.575264    3.692971
                                    3.692971   -4.767605
                   1    0.242531   -4.630541    8.870875
                                    8.870875  -10.496161
                   2    0.243317   -9.406653

  2. Atomic kind: O                                     Number of atoms:     128

     Orbital Basis Set                                     DZVP-MOLOPT-SR-GTH-q6

       Number of orbital shell sets:                                           1
       Number of orbital shells:                                               5
       Number of primitive Cartesian functions:                                5
       Number of Cartesian basis functions:                                   14
       Number of spherical basis functions:                                   13
       Norm type:                                                              2

       Normalised Cartesian orbitals:

                        Set   Shell   Orbital            Exponent    Coefficient

                          1       1    2s               10.389228       0.396646
                                                         3.849621       0.208811
                                                         1.388401      -0.301641
                                                         0.496955      -0.274061
                                                         0.162492      -0.033677

                          1       2    3s               10.389228       0.303673
                                                         3.849621       0.240943
                                                         1.388401      -0.313066
                                                         0.496955      -0.043055
                                                         0.162492       0.213991

                          1       3    3px              10.389228      -1.530415
                                                         3.849621      -1.371928
                                                         1.388401      -0.761951
                                                         0.496955      -0.253695
                                                         0.162492      -0.035541
                          1       3    3py              10.389228      -1.530415
                                                         3.849621      -1.371928
                                                         1.388401      -0.761951
                                                         0.496955      -0.253695
                                                         0.162492      -0.035541
                          1       3    3pz              10.389228      -1.530415
                                                         3.849621      -1.371928
                                                         1.388401      -0.761951
                                                         0.496955      -0.253695
                                                         0.162492      -0.035541

                          1       4    4px              10.389228      -0.565392
                                                         3.849621      -0.038231
                                                         1.388401      -0.382373
                                                         0.496955       0.179070
                                                         0.162492       0.122714
                          1       4    4py              10.389228      -0.565392
                                                         3.849621      -0.038231
                                                         1.388401      -0.382373
                                                         0.496955       0.179070
                                                         0.162492       0.122714
                          1       4    4pz              10.389228      -0.565392
                                                         3.849621      -0.038231
                                                         1.388401      -0.382373
                                                         0.496955       0.179070
                                                         0.162492       0.122714

                          1       5    4dx2             10.389228       1.867377
                                                         3.849621       0.670994
                                                         1.388401       1.353441
                                                         0.496955       0.273538
                                                         0.162492       0.006620
                          1       5    4dxy             10.389228       3.234392
                                                         3.849621       1.162195
                                                         1.388401       2.344229
                                                         0.496955       0.473781
                                                         0.162492       0.011466
                          1       5    4dxz             10.389228       3.234392
                                                         3.849621       1.162195
                                                         1.388401       2.344229
                                                         0.496955       0.473781
                                                         0.162492       0.011466
                          1       5    4dy2             10.389228       1.867377
                                                         3.849621       0.670994
                                                         1.388401       1.353441
                                                         0.496955       0.273538
                                                         0.162492       0.006620
                          1       5    4dyz             10.389228       3.234392
                                                         3.849621       1.162195
                                                         1.388401       2.344229
                                                         0.496955       0.473781
                                                         0.162492       0.011466
                          1       5    4dz2             10.389228       1.867377
                                                         3.849621       0.670994
                                                         1.388401       1.353441
                                                         0.496955       0.273538
                                                         0.162492       0.006620

       Atomic covalent radius [Angstrom]:                                  0.730

       Atomic van der Waals radius [Angstrom]:                             1.520

     GTH Potential information for                                    GTH-PBE-q6

       Description:                       Goedecker-Teter-Hutter pseudopotential
                                           Goedecker et al., PRB 54, 1703 (1996)
                                          Hartwigsen et al., PRB 58, 3641 (1998)
                                                      Krack, TCA 114, 145 (2005)

       Gaussian exponent of the core charge distribution:               8.360253
       Electronic configuration (s p d ...):                               2   4

       Parameters of the local part of the GTH pseudopotential:

                          rloc        C1          C2          C3          C4
                        0.244554  -16.667215    2.487311

       Parameters of the non-local part of the GTH pseudopotential:

                   l      r(l)      h(i,j,l)

                   0    0.220956   18.337458
                   1    0.211332

     A DFT+U correction is applied to atoms of this atomic kind:
       Angular quantum momentum number L:                                      1
       U(eff) = (U - J) value in [eV]:                                     3.500


 MOLECULE KIND INFORMATION


 All atoms are their own molecule, skipping detailed information


 TOTAL NUMBERS AND MAXIMUM NUMBERS

  Total number of            - Atomic kinds:                                   2
                             - Atoms:                                        192
                             - Shell sets:                                   192
                             - Shells:                                      1152
                             - Primitive Cartesian functions:               1024
                             - Cartesian basis functions:                   3776
                             - Spherical basis functions:                   3328

  Maximum angular momentum of- Orbital basis functions:                        3
                             - Local part of the GTH pseudopotential:          2
                             - Non-local part of the GTH pseudopotential:      3


 MODULE QUICKSTEP: ATOMIC COORDINATES IN ANGSTROM

   Atom Kind Element         X             Y             Z       Z(eff)     Mass
      1    1 Ti   22      0.001001      0.000994      0.000001  12.0000  47.8670
      2    1 Ti   22      1.888372      1.888379      4.807508  12.0000  47.8670
      3    1 Ti   22      0.000981      1.888375      2.402049  12.0000  47.8670
      4    1 Ti   22      1.888385      0.000978      7.212966  12.0000  47.8670
      5    1 Ti   22      0.000976      3.776274      0.002968  12.0000  47.8670
      6    1 Ti   22      1.888398     13.237626      4.805774  12.0000  47.8670
      7    1 Ti   22     11.350303      1.888370      2.403675  12.0000  47.8670
      8    1 Ti   22      5.669110      0.000965      7.217250  12.0000  47.8670
      9    1 Ti   22      1.888371      3.776258      7.209964  12.0000  47.8670
     10    1 Ti   22      0.001001     13.237595      2.403791  12.0000  47.8670
     11    1 Ti   22      5.669128      1.888423      4.803195  12.0000  47.8670
     12    1 Ti   22     11.350281      0.000976     -0.001633  12.0000  47.8670
     13    1 Ti   22      3.776275      0.000983     -0.002958  12.0000  47.8670
     14    1 Ti   22     13.237622      1.888390      4.809247  12.0000  47.8670
     15    1 Ti   22     13.237607      0.000996      7.211242  12.0000  47.8670
     16    1 Ti   22      3.776262      1.888382      2.405057  12.0000  47.8670
     17    1 Ti   22      1.888419      5.669130      4.811821  12.0000  47.8670
     18    1 Ti   22      0.000979     11.350289      0.001628  12.0000  47.8670
     19    1 Ti   22      0.000963      5.669111      2.397763  12.0000  47.8670
     20    1 Ti   22      1.888376     11.350296      7.211342  12.0000  47.8670
     21    1 Ti   22      0.000968      7.569802      0.005948  12.0000  47.8670
     22    1 Ti   22      1.888392      9.462535      4.808698  12.0000  47.8670
     23    1 Ti   22      7.569800      1.888415      2.408025  12.0000  47.8670
     24    1 Ti   22      9.462504      0.000973      7.214125  12.0000  47.8670
     25    1 Ti   22      1.888412      7.569792      7.206994  12.0000  47.8670
     26    1 Ti   22      0.000977      9.462504      2.400899  12.0000  47.8670
     27    1 Ti   22      9.462534      1.888395      4.806323  12.0000  47.8670
     28    1 Ti   22      7.569793      0.000971     -0.005946  12.0000  47.8670
     29    1 Ti   22      3.776263      3.776271     -0.000003  12.0000  47.8670
     30    1 Ti   22     13.237615     13.237617      4.807519  12.0000  47.8670
     31    1 Ti   22     11.350255      5.669123      2.399365  12.0000  47.8670
     32    1 Ti   22      5.669128     11.350248      7.215652  12.0000  47.8670
     33    1 Ti   22     13.237619      3.776275      7.208277  12.0000  47.8670
     34    1 Ti   22      3.776284     13.237618      2.406748  12.0000  47.8670
     35    1 Ti   22      5.669095      5.669101      4.807504  12.0000  47.8670
     36    1 Ti   22     11.350300     11.350301     -0.000000  12.0000  47.8670
     37    1 Ti   22     11.350294     13.237617      2.405419  12.0000  47.8670
     38    1 Ti   22      5.669109      3.776310      7.214330  12.0000  47.8670
     39    1 Ti   22      3.776261     11.350299     -0.001377  12.0000  47.8670
     40    1 Ti   22     13.237635      5.669117      4.813527  12.0000  47.8670
     41    1 Ti   22      5.669129     13.237639      4.801495  12.0000  47.8670
     42    1 Ti   22     11.350286      3.776257      0.001375  12.0000  47.8670
     43    1 Ti   22     13.237622     11.350276      7.209603  12.0000  47.8670
     44    1 Ti   22      3.776306      5.669113      2.400687  12.0000  47.8670
     45    1 Ti   22      3.776306      7.569808      0.003018  12.0000  47.8670
     46    1 Ti   22     13.237634      9.462514      4.810392  12.0000  47.8670
     47    1 Ti   22      7.569825      5.669091      2.403700  12.0000  47.8670
     48    1 Ti   22      9.462530     11.350284      7.212527  12.0000  47.8670
     49    1 Ti   22     13.237634      7.569795      7.205290  12.0000  47.8670
     50    1 Ti   22      3.776266      9.462515      2.403861  12.0000  47.8670
     51    1 Ti   22      9.462476      5.669130      4.810689  12.0000  47.8670
     52    1 Ti   22      7.569798     11.350265     -0.004341  12.0000  47.8670
     53    1 Ti   22     11.350291      9.462523      2.402485  12.0000  47.8670
     54    1 Ti   22      5.669088      7.569818      7.211314  12.0000  47.8670
     55    1 Ti   22      5.669128      9.462482      4.804327  12.0000  47.8670
     56    1 Ti   22     11.350258      7.569794      0.004337  12.0000  47.8670
     57    1 Ti   22      9.462513      3.776264      7.211156  12.0000  47.8670
     58    1 Ti   22      7.569807     13.237635      2.409730  12.0000  47.8670
     59    1 Ti   22      7.569796      3.776307     -0.003021  12.0000  47.8670
     60    1 Ti   22      9.462519     13.237642      4.804630  12.0000  47.8670
     61    1 Ti   22      7.569820      7.569826     -0.000000  12.0000  47.8670
     62    1 Ti   22      9.462534      9.462534      4.807507  12.0000  47.8670
     63    1 Ti   22      7.569802      9.462477      2.406880  12.0000  47.8670
     64    1 Ti   22      9.462474      7.569801      7.208139  12.0000  47.8670
     65    2 O     8      0.000513      0.001685      1.990491   6.0000  15.9994
     66    2 O     8      1.884619      1.887552      6.798365   6.0000  15.9994
     67    2 O     8      0.001670      1.884589      4.394381   6.0000  15.9994
     68    2 O     8      1.887577      0.000522      9.201992   6.0000  15.9994
     69    2 O     8      1.884590      0.001670      5.220638   6.0000  15.9994
     70    2 O     8      0.000523      1.887576      0.413027   6.0000  15.9994
     71    2 O     8      1.887552      1.884618      2.816655   6.0000  15.9994
     72    2 O     8      0.001687      0.000513      7.624529   6.0000  15.9994
     73    2 O     8      0.000574      3.775946      1.987929   6.0000  15.9994
     74    2 O     8      1.884591     13.236884      6.798144   6.0000  15.9994
     75    2 O     8     11.351064      1.884611      4.394650   6.0000  15.9994
     76    2 O     8      5.672291      0.000542      9.202852   6.0000  15.9994
     77    2 O     8      1.884745      3.775903      5.223150   6.0000  15.9994
     78    2 O     8      0.000514     13.236872      0.413257   6.0000  15.9994
     79    2 O     8      5.672255      1.884727      2.815857   6.0000  15.9994
     80    2 O     8     11.351041      0.000520      7.624253   6.0000  15.9994
     81    2 O     8      3.775947      0.000575      7.627088   6.0000  15.9994
     82    2 O     8     13.236885      1.884590      2.816875   6.0000  15.9994
     83    2 O     8     13.236874      0.000513      9.201760   6.0000  15.9994
     84    2 O     8      3.775906      1.884745      4.391866   6.0000  15.9994
     85    2 O     8      1.884726      5.672250      6.799163   6.0000  15.9994
     86    2 O     8      0.000519     11.351042      1.990771   6.0000  15.9994
     87    2 O     8      0.000543      5.672293      0.412168   6.0000  15.9994
     88    2 O     8      1.884611     11.351062      5.220369   6.0000  15.9994
     89    2 O     8      0.000541      7.566698      1.991653   6.0000  15.9994
     90    2 O     8      1.884741      9.462827      6.795712   6.0000  15.9994
     91    2 O     8      7.566741      1.884724      4.395474   6.0000  15.9994
     92    2 O     8      9.462786      0.000570      9.199284   6.0000  15.9994
     93    2 O     8      1.884723      7.566737      5.219547   6.0000  15.9994
     94    2 O     8      0.000571      9.462787      0.415737   6.0000  15.9994
     95    2 O     8      9.462827      1.884740      2.819308   6.0000  15.9994
     96    2 O     8      7.566697      0.000542      7.623369   6.0000  15.9994
     97    2 O     8      3.769533      0.001671      1.991025   6.0000  15.9994
     98    2 O     8     13.237950      1.887575      6.798217   6.0000  15.9994
     99    2 O     8      0.001686      5.655663      4.394398   6.0000  15.9994
    100    2 O     8      1.887554     11.353922      9.202125   6.0000  15.9994
    101    2 O     8     13.237959      0.001687      5.220793   6.0000  15.9994
    102    2 O     8      3.769604      1.887570      0.412528   6.0000  15.9994
    103    2 O     8      1.887629      5.655812      2.816648   6.0000  15.9994
    104    2 O     8      0.001670     11.353950      7.624389   6.0000  15.9994
    105    2 O     8     11.353923      1.887553      0.412893   6.0000  15.9994
    106    2 O     8      5.655665      0.001688      5.220620   6.0000  15.9994
    107    2 O     8      5.655813      1.887629      6.798369   6.0000  15.9994
    108    2 O     8     11.353949      0.001670      1.990631   6.0000  15.9994
    109    2 O     8      1.887568      3.769603      9.202492   6.0000  15.9994
    110    2 O     8      0.001686     13.237957      4.394224   6.0000  15.9994
    111    2 O     8      0.001672      3.769531      7.623993   6.0000  15.9994
    112    2 O     8      1.887576     13.237951      2.816803   6.0000  15.9994
    113    2 O     8      3.769810      3.775909      1.988536   6.0000  15.9994
    114    2 O     8     13.237960     13.236874      6.797986   6.0000  15.9994
    115    2 O     8     11.350988      5.655800      4.394653   6.0000  15.9994
    116    2 O     8      5.672254     11.353820      9.202922   6.0000  15.9994
    117    2 O     8     13.237902      3.775947      5.223355   6.0000  15.9994
    118    2 O     8      3.769534     13.236882      0.412718   6.0000  15.9994
    119    2 O     8      5.672269      5.656202      2.815659   6.0000  15.9994
    120    2 O     8     11.351062     11.353929      7.624120   6.0000  15.9994
    121    2 O     8     11.353951     13.236884      0.413115   6.0000  15.9994
    122    2 O     8      5.656065      3.775978      5.223046   6.0000  15.9994
    123    2 O     8      3.775905     11.353799      7.626898   6.0000  15.9994
    124    2 O     8     13.236867      5.655663      2.816856   6.0000  15.9994
    125    2 O     8      5.655665     13.236868      6.798159   6.0000  15.9994
    126    2 O     8     11.353798      3.775904      1.988120   6.0000  15.9994
    127    2 O     8     13.236885     11.353949      9.201905   6.0000  15.9994
    128    2 O     8      3.775974      5.656063      4.391973   6.0000  15.9994
    129    2 O     8      5.656202      5.672272      6.799363   6.0000  15.9994
    130    2 O     8     11.353928     11.351063      1.990901   6.0000  15.9994
    131    2 O     8     13.236883      3.769532      9.202299   6.0000  15.9994
    132    2 O     8      3.775947     13.237903      4.391661   6.0000  15.9994
    133    2 O     8     11.353820      5.672254      0.412097   6.0000  15.9994
    134    2 O     8      5.655798     11.350987      5.220363   6.0000  15.9994
    135    2 O     8      3.775912      3.769811      7.626487   6.0000  15.9994
    136    2 O     8     13.236872     13.237960      2.817034   6.0000  15.9994
    137    2 O     8     13.237953     11.351040      5.220517   6.0000  15.9994
    138    2 O     8      3.769837      5.672228      0.411702   6.0000  15.9994
    139    2 O     8      5.672296     13.237934      2.815940   6.0000  15.9994
    140    2 O     8     11.351046      3.769592      7.623757   6.0000  15.9994
    141    2 O     8      3.769591     11.351047      1.991263   6.0000  15.9994
    142    2 O     8     13.237933      5.672289      6.799081   6.0000  15.9994
    143    2 O     8     11.351044     13.237952      4.394506   6.0000  15.9994
    144    2 O     8      5.672232      3.769837      9.203319   6.0000  15.9994
    145    2 O     8      3.769833      7.566760      1.992113   6.0000  15.9994
    146    2 O     8     13.237907      9.462786      6.795510   6.0000  15.9994
    147    2 O     8      7.566719      5.656197      4.395668   6.0000  15.9994
    148    2 O     8      9.462826     11.353803      9.199475   6.0000  15.9994
    149    2 O     8     13.237933      7.566694      5.219631   6.0000  15.9994
    150    2 O     8      3.769805      9.462818      0.415133   6.0000  15.9994
    151    2 O     8      9.462748      5.656057      2.819210   6.0000  15.9994
    152    2 O     8      7.566738     11.353822      7.623297   6.0000  15.9994
    153    2 O     8     11.353804      9.462826      0.415547   6.0000  15.9994
    154    2 O     8      5.656195      7.566713      5.219352   6.0000  15.9994
    155    2 O     8      5.656056      9.462749      6.795807   6.0000  15.9994
    156    2 O     8     11.353820      7.566738      1.991724   6.0000  15.9994
    157    2 O     8      9.462817      3.769805      9.199886   6.0000  15.9994
    158    2 O     8      7.566695     13.237934      4.395393   6.0000  15.9994
    159    2 O     8      7.566760      3.769836      7.622906   6.0000  15.9994
    160    2 O     8      9.462786     13.237907      2.819516   6.0000  15.9994
    161    2 O     8      7.582934      0.001684      1.990665   6.0000  15.9994
    162    2 O     8      9.468995      1.887569      6.798726   6.0000  15.9994
    163    2 O     8      0.001670      9.469063      4.394769   6.0000  15.9994
    164    2 O     8      1.887621      7.582799      9.202146   6.0000  15.9994
    165    2 O     8      9.469063      0.001672      5.220250   6.0000  15.9994
    166    2 O     8      7.582798      1.887622      0.412872   6.0000  15.9994
    167    2 O     8      1.887565      9.468996      2.816294   6.0000  15.9994
    168    2 O     8      0.001684      7.582935      7.624353   6.0000  15.9994
    169    2 O     8      7.582548      3.775967      1.988236   6.0000  15.9994
    170    2 O     8      9.469063     13.236884      6.798534   6.0000  15.9994
    171    2 O     8     11.351046      9.469006      4.395009   6.0000  15.9994
    172    2 O     8      5.672263      7.582418      9.203117   6.0000  15.9994
    173    2 O     8      9.468790      3.775910      5.222748   6.0000  15.9994
    174    2 O     8      7.582942     13.236871      0.413081   6.0000  15.9994
    175    2 O     8      5.672224      9.468768      2.815465   6.0000  15.9994
    176    2 O     8     11.350997      7.582811      7.624101   6.0000  15.9994
    177    2 O     8      3.775966      7.582546      7.626782   6.0000  15.9994
    178    2 O     8     13.236881      9.469062      2.816487   6.0000  15.9994
    179    2 O     8     13.236872      7.582938      9.201938   6.0000  15.9994
    180    2 O     8      3.775906      9.468789      4.392271   6.0000  15.9994
    181    2 O     8      9.468767      5.672234      6.799550   6.0000  15.9994
    182    2 O     8      7.582810     11.350997      1.990919   6.0000  15.9994
    183    2 O     8      7.582419      5.672265      0.411904   6.0000  15.9994
    184    2 O     8      9.469004     11.351048      5.220013   6.0000  15.9994
    185    2 O     8      7.582425      7.566726      1.991914   6.0000  15.9994
    186    2 O     8      9.468798      9.462822      6.796116   6.0000  15.9994
    187    2 O     8      7.566750      9.468771      4.395857   6.0000  15.9994
    188    2 O     8      9.462760      7.582553      9.199580   6.0000  15.9994
    189    2 O     8      9.468769      7.566764      5.219161   6.0000  15.9994
    190    2 O     8      7.582554      9.462759      0.415441   6.0000  15.9994
    191    2 O     8      9.462817      9.468799      2.818906   6.0000  15.9994
    192    2 O     8      7.566727      7.582429      7.623108   6.0000  15.9994



 SCF PARAMETERS         Density guess:                                   RESTART
                        --------------------------------------------------------
                        max_scf:                                              40
                        max_scf_history:                                       0
                        max_diis:                                              4
                        --------------------------------------------------------
                        eps_scf:                                        1.00E-06
                        eps_scf_history:                                0.00E+00
                        eps_diis:                                       1.00E-01
                        eps_eigval:                                     1.00E-05
                        --------------------------------------------------------
                        level_shift [a.u.]:                             0.000000
                        --------------------------------------------------------
                        Outer loop SCF in use 
                        No variables optimised in outer loop
                        eps_scf                                         1.00E-06
                        max_scf                                               60
                        No outer loop optimization
                        step_size                                       5.00E-01

 PW_GRID| Information for grid number                                          1
 PW_GRID| Grid distributed over                                   128 processors
 PW_GRID| Real space group dimensions                                   128    1
 PW_GRID| the grid is blocked:                                                NO
 PW_GRID| Cutoff [a.u.]                                                    300.0
 PW_GRID| spherical cutoff:                                                   NO
 PW_GRID|   Bounds   1           -112     112                Points:         225
 PW_GRID|   Bounds   2           -112     112                Points:         225
 PW_GRID|   Bounds   3            -72      71                Points:         144
 PW_GRID| Volume element (a.u.^3)  0.2035E-02     Volume (a.u.^3)     14833.7304
 PW_GRID| Grid span                                                    FULLSPACE
 PW_GRID|   Distribution                         Average         Max         Min
 PW_GRID|   G-Vectors                            56953.1       57150       56925
 PW_GRID|   G-Rays                                 253.1         254         253
 PW_GRID|   Real Space Points                    56953.1       64800       32400

 PW_GRID| Information for grid number                                          2
 PW_GRID| Number of the reference grid                                         1
 PW_GRID| Grid distributed over                                   128 processors
 PW_GRID| Real space group dimensions                                   128    1
 PW_GRID| the grid is blocked:                                                NO
 PW_GRID| Cutoff [a.u.]                                                    100.0
 PW_GRID| spherical cutoff:                                                   NO
 PW_GRID|   Bounds   1            -67      67                Points:         135
 PW_GRID|   Bounds   2            -67      67                Points:         135
 PW_GRID|   Bounds   3            -40      40                Points:          81
 PW_GRID| Volume element (a.u.^3)  0.1005E-01     Volume (a.u.^3)     14833.7304
 PW_GRID| Grid span                                                    FULLSPACE
 PW_GRID|   Distribution                         Average         Max         Min
 PW_GRID|   G-Vectors                            11533.0       12150       10800
 PW_GRID|   G-Rays                                  85.4          90          80
 PW_GRID|   Real Space Points                    11533.0       21870       10935

 PW_GRID| Information for grid number                                          3
 PW_GRID| Number of the reference grid                                         1
 PW_GRID| Grid distributed over                                   128 processors
 PW_GRID| Real space group dimensions                                     8   16
 PW_GRID| the grid is blocked:                                                NO
 PW_GRID| Cutoff [a.u.]                                                     33.3
 PW_GRID| spherical cutoff:                                                   NO
 PW_GRID|   Bounds   1            -37      37                Points:          75
 PW_GRID|   Bounds   2            -37      37                Points:          75
 PW_GRID|   Bounds   3            -24      23                Points:          48
 PW_GRID| Volume element (a.u.^3)  0.5494E-01     Volume (a.u.^3)     14833.7304
 PW_GRID| Grid span                                                    FULLSPACE
 PW_GRID|   Distribution                         Average         Max         Min
 PW_GRID|   G-Vectors                             2109.4        2475        1725
 PW_GRID|   G-Rays                                  28.1          33          23
 PW_GRID|   Real Space Points                     2109.4        2400        1728

 PW_GRID| Information for grid number                                          4
 PW_GRID| Number of the reference grid                                         1
 PW_GRID| Grid distributed over                                   128 processors
 PW_GRID| Real space group dimensions                                     8   16
 PW_GRID| the grid is blocked:                                                NO
 PW_GRID| Cutoff [a.u.]                                                     11.1
 PW_GRID| spherical cutoff:                                                   NO
 PW_GRID|   Bounds   1            -22      22                Points:          45
 PW_GRID|   Bounds   2            -22      22                Points:          45
 PW_GRID|   Bounds   3            -13      13                Points:          27
 PW_GRID| Volume element (a.u.^3)  0.2713         Volume (a.u.^3)     14833.7304
 PW_GRID| Grid span                                                    FULLSPACE
 PW_GRID|   Distribution                         Average         Max         Min
 PW_GRID|   G-Vectors                              427.1         585         270
 PW_GRID|   G-Rays                                   9.5          13           6
 PW_GRID|   Real Space Points                      427.1         486         270

 POISSON| Solver                                                        PERIODIC
 POISSON| Periodicity                                                        XYZ

 RS_GRID| Information for grid number                                          1
 RS_GRID|   Bounds   1           -112     112                Points:         225
 RS_GRID|   Bounds   2           -112     112                Points:         225
 RS_GRID|   Bounds   3            -72      71                Points:         144
 RS_GRID| Real space distribution over                                  8 groups
 RS_GRID| Real space distribution along direction                              1
 RS_GRID| Border size                                                         26
 RS_GRID| Real space distribution over                                 16 groups
 RS_GRID| Real space distribution along direction                              2
 RS_GRID| Border size                                                         26
 RS_GRID|   Distribution                         Average         Max         Min
 RS_GRID|   Planes                                  80.1          81          80
 RS_GRID|   Distribution                         Average         Max         Min
 RS_GRID|   Planes                                  66.1          67          66

 RS_GRID| Information for grid number                                          2
 RS_GRID|   Bounds   1            -67      67                Points:         135
 RS_GRID|   Bounds   2            -67      67                Points:         135
 RS_GRID|   Bounds   3            -40      40                Points:          81
 RS_GRID| Real space distribution over                                  8 groups
 RS_GRID| Real space distribution along direction                              1
 RS_GRID| Border size                                                         24
 RS_GRID| Real space distribution over                                 16 groups
 RS_GRID| Real space distribution along direction                              2
 RS_GRID| Border size                                                         24
 RS_GRID|   Distribution                         Average         Max         Min
 RS_GRID|   Planes                                  64.9          65          64
 RS_GRID|   Distribution                         Average         Max         Min
 RS_GRID|   Planes                                  56.4          57          56

 RS_GRID| Information for grid number                                          3
 RS_GRID|   Bounds   1            -37      37                Points:          75
 RS_GRID|   Bounds   2            -37      37                Points:          75
 RS_GRID|   Bounds   3            -24      23                Points:          48
 RS_GRID| Real space fully replicated
 RS_GRID| Group size                                                           1

 RS_GRID| Information for grid number                                          4
 RS_GRID|   Bounds   1            -22      22                Points:          45
 RS_GRID|   Bounds   2            -22      22                Points:          45
 RS_GRID|   Bounds   3            -13      13                Points:          27
 RS_GRID| Real space fully replicated
 RS_GRID| Group size                                                           1

 BFGS| Use rational function optimization for step estimation:                NO
 BFGS| Use model Hessian for initial guess:                                  YES
 BFGS| Restart Hessian:                                                       NO
 BFGS| Trust radius:                                                       0.472

 *******************************************************************************
 ***                     STARTING GEOMETRY OPTIMIZATION                      ***
 ***                                   BFGS                                  ***
 *******************************************************************************

 Spin 1

 Number of electrons:                                                        768
 Number of occupied orbitals:                                                768
 Number of molecular orbitals:                                               768

 Spin 2

 Number of electrons:                                                        767
 Number of occupied orbitals:                                                767
 Number of molecular orbitals:                                               767

 Number of orbital functions:                                               3328
 Number of independent orbital functions:                                   3328

 Extrapolation method: initial_guess

 *** WARNING in qs_initial_guess.F:306 :: User requested to restart the    ***
 *** wavefunction from the file named: tio2-RESTART.wfn. This file does    ***
 *** not exist. Please check the existence of the file or change properly  ***
 *** the value of the keyword WFN_RESTART_FILE_NAME. Calculation continues ***
 *** using ATOMIC GUESS.                                                   ***


 Atomic guess: The first density matrix is obtained in terms of atomic orbitals
               and electronic configurations assigned to each atomic kind

 Guess for atomic kind: Ti

 Electronic structure
    Total number of core electrons                                         10.00
    Total number of valence electrons                                      12.00
    Total number of electrons                                              22.00
    Multiplicity                                                   not specified
    S   [  2.00  2.00] 2.00  2.00
    P   [  6.00] 6.00
    D      2.00


 *******************************************************************************
                  Iteration          Convergence                     Energy [au]
 *******************************************************************************
                          1         2.59099                     -56.573945749309
                          2        0.737518                     -57.461623245624
                          3        0.123244E-01                 -57.676656834797
                          4        0.338536E-02                 -57.676690535970
                          5        0.252157E-03                 -57.676697146183
                          6        0.162704E-05                 -57.676697160103
                          7        0.846593E-06                 -57.676697160104

 Energy components [Hartree]           Total Energy ::          -57.676697160104
                                        Band Energy ::          -13.440549799540
                                     Kinetic Energy ::           25.008468428381
                                   Potential Energy ::          -82.685165588485
                                      Virial (-V/T) ::            3.306286661467
                                        Core Energy ::          -97.155838374470
                                          XC Energy ::           -6.919409696495
                                     Coulomb Energy ::           46.398550910862
                       Total Pseudopotential Energy ::         -122.259340742080
                       Local Pseudopotential Energy ::         -118.928992669456
                    Nonlocal Pseudopotential Energy ::           -3.330348072625
                                        Confinement ::            0.950339392289

 Orbital energies  State     L     Occupation   Energy[a.u.]          Energy[eV]

                       1     0          2.000      -2.312566          -62.928123
                       2     0          2.000      -0.123060           -3.348633

                       1     1          6.000      -1.385567          -37.703193

                       1     2          2.000      -0.127948           -3.481643


 Total Electron Density at R=0:                                         0.004726

 Guess for atomic kind: O

 Electronic structure
    Total number of core electrons                                          2.00
    Total number of valence electrons                                       6.00
    Total number of electrons                                               8.00
    Multiplicity                                                   not specified
    S   [  2.00] 2.00
    P      4.00


 *******************************************************************************
                  Iteration          Convergence                     Energy [au]
 *******************************************************************************
                          1        0.702811                     -15.577904332270
                          2        0.612408                     -15.588447180504
                          3        0.955344E-02                 -15.655871208406
                          4        0.223754E-02                 -15.655885053552
                          5        0.157183E-02                 -15.655885461027
                          6        0.124953E-02                 -15.655885607150
                          7        0.312011E-06                 -15.655885858066

 Energy components [Hartree]           Total Energy ::          -15.655885858066
                                        Band Energy ::           -2.983128125584
                                     Kinetic Energy ::           11.754765134683
                                   Potential Energy ::          -27.410650992749
                                      Virial (-V/T) ::            2.331875684345
                                        Core Energy ::          -26.153522949072
                                          XC Energy ::           -3.157392363346
                                     Coulomb Energy ::           13.655029454351
                       Total Pseudopotential Energy ::          -37.943026860963
                       Local Pseudopotential Energy ::          -39.220419683052
                    Nonlocal Pseudopotential Energy ::            1.277392822089
                                        Confinement ::            0.347387772086

 Orbital energies  State     L     Occupation   Energy[a.u.]          Energy[eV]

                       1     0          2.000      -0.861522          -23.443215

                       1     1          4.000      -0.315021           -8.572154


 Total Electron Density at R=0:                                         0.000093

 Spin 1
 Re-scaling the density matrix to get the right number of electrons for spin 1
                  # Electrons              Trace(P)               Scaling factor
                          768               768.001                        1.000

 Spin 2
 Re-scaling the density matrix to get the right number of electrons for spin 2
                  # Electrons              Trace(P)               Scaling factor
                          767               768.001                        0.999


 SCF WAVEFUNCTION OPTIMIZATION

  ----------------------------------- OT ---------------------------------------
  Minimizer      : DIIS                : direct inversion
                                         in the iterative subspace
                                         using   7 DIIS vectors
                                         safer DIIS on
  Preconditioner : FULL_SINGLE_INVERSE : inversion of 
                                         H + eS - 2*(Sc)(c^T*H*c+const)(Sc)^T
  Precond_solver : DEFAULT
  stepsize       :    0.08000000                  energy_gap     :    0.08000000
  eps_taylor     :   0.10000E-15                  max_taylor     :             4
  ----------------------------------- OT ---------------------------------------

  Step     Update method      Time    Convergence         Total energy    Change
  ------------------------------------------------------------------------------
     1 OT DIIS     0.80E-01    2.0     0.01003452     -5656.2489781739 -5.66E+03
     2 OT DIIS     0.80E-01    1.5     0.00724810     -5691.1344845787 -3.49E+01
     3 OT DIIS     0.80E-01    1.5     0.00458683     -5723.9367528530 -3.28E+01
     4 OT DIIS     0.80E-01    1.5     0.00365034     -5734.1202888984 -1.02E+01
     5 OT DIIS     0.80E-01    1.5     0.00266993     -5745.5138233584 -1.14E+01
     6 OT DIIS     0.80E-01    1.5     0.00220066     -5752.4089150559 -6.90E+00
     7 OT DIIS     0.80E-01    1.5     0.00184522     -5758.5386174590 -6.13E+00
     8 OT DIIS     0.80E-01    1.5     0.00147710     -5764.4795919493 -5.94E+00
     9 OT DIIS     0.80E-01    1.5     0.00127831     -5768.0899018581 -3.61E+00
    10 OT DIIS     0.80E-01    1.5     0.00099695     -5771.3567248562 -3.27E+00
    11 OT DIIS     0.80E-01    1.5     0.00090993     -5772.1728750452 -8.16E-01
    12 OT DIIS     0.80E-01    1.5     0.00073707     -5773.9778993850 -1.81E+00
    13 OT DIIS     0.80E-01    1.5     0.00060426     -5775.3294955656 -1.35E+00
    14 OT DIIS     0.80E-01    1.5     0.00050044     -5776.2596345387 -9.30E-01
    15 OT DIIS     0.80E-01    1.5     0.00045032     -5776.7418199095 -4.82E-01
    16 OT DIIS     0.80E-01    1.5     0.00037956     -5777.2726806536 -5.31E-01
    17 OT DIIS     0.80E-01    1.5     0.00035199     -5777.4917614132 -2.19E-01
    18 OT DIIS     0.80E-01    1.5     0.00030596     -5777.8137439690 -3.22E-01
    19 OT DIIS     0.80E-01    1.5     0.00026826     -5778.0331268354 -2.19E-01
    20 OT DIIS     0.80E-01    1.5     0.00025486     -5778.1404873520 -1.07E-01
    21 OT DIIS     0.80E-01    1.5     0.00023275     -5778.3317246592 -1.91E-01
    22 OT DIIS     0.80E-01    1.5     0.00021397     -5778.4509825976 -1.19E-01
    23 OT DIIS     0.80E-01    1.5     0.00019476     -5778.5980570052 -1.47E-01
    24 OT DIIS     0.80E-01    1.5     0.00017386     -5778.6913433799 -9.33E-02
    25 OT DIIS     0.80E-01    1.5     0.00017063     -5778.7404919229 -4.91E-02
    26 OT DIIS     0.80E-01    1.5     0.00014655     -5778.8305619282 -9.01E-02
    27 OT DIIS     0.80E-01    1.5     0.00014312     -5778.8703126449 -3.98E-02
    28 OT DIIS     0.80E-01    1.5     0.00013616     -5778.8997309601 -2.94E-02
    29 OT DIIS     0.80E-01    1.5     0.00012966     -5778.9520859325 -5.24E-02
    30 OT SD       0.80E-01    1.5     0.00012880     -5778.9554075220 -3.32E-03
    31 OT DIIS     0.80E-01    1.5     0.00012502     -5778.9620783839 -6.67E-03
    32 OT DIIS     0.80E-01    1.5     0.00010754     -5779.0443863198 -8.23E-02
    33 OT DIIS     0.80E-01    1.5     0.00010182     -5779.0611379695 -1.68E-02
    34 OT DIIS     0.80E-01    1.5     0.00009446     -5779.1056248773 -4.45E-02
    35 OT DIIS     0.80E-01    1.5     0.00008733     -5779.1282179862 -2.26E-02
    36 OT DIIS     0.80E-01    1.5     0.00008385     -5779.1403777769 -1.22E-02
    37 OT DIIS     0.80E-01    1.5     0.00008086     -5779.1587240291 -1.83E-02
    38 OT DIIS     0.80E-01    1.5     0.00007977     -5779.1612873188 -2.56E-03
    39 OT DIIS     0.80E-01    1.5     0.00007757     -5779.1713350093 -1.00E-02
    40 OT DIIS     0.80E-01    1.6     0.00007157     -5779.2021846857 -3.08E-02

  Leaving inner SCF loop after reaching    40 steps.


  Electronic density on regular grids:      -1534.9999999999        0.0000000001
  Core density on regular grids:             1535.9999999995       -0.0000000005
  Total charge density on r-space grids:        0.9999999996
  Total charge density g-space grids:           0.9999999996

  Overlap energy of the core charge distribution:               0.00000000000324
  Self energy of the core charge distribution:             -12156.89556134359555
  Core Hamiltonian energy:                                   3269.91744901117045
  Hartree energy:                                            4022.01797721266939
  Exchange-correlation energy:                               -923.87066923740724

  DFT+U energy:                                                 9.62861967147041

  Total energy:                                             -5779.20218468568874

  outer SCF iter =    1 RMS gradient =   0.72E-04 energy =      -5779.2021846857

  ----------------------------------- OT ---------------------------------------
[...]
 flops   416 x    64 x    32        5394797690880       0.0%    100.0%      0.0%     
 flops   416 x    32 x    64        5394797690880       0.0%    100.0%      0.0%     
 flops    96 x    32 x   208        6696100429824       0.0%    100.0%      0.0%     
 flops   416 x    32 x   208        8306156371968       0.0%    100.0%      0.0%     
 flops   416 x    64 x    64       10160202317824       0.0%    100.0%      0.0%     
 flops    96 x    64 x   208       12629887156224       0.0%    100.0%      0.0%     
 flops    13 x    32 x    13       12746796910848       0.0%    100.0%      0.0%     
 flops    26 x    32 x    26       13157262163968       0.0%    100.0%      0.0%     
 flops    26 x    32 x    13       13157262163968       0.0%    100.0%      0.0%     
 flops    13 x    32 x    26       13157262163968       0.0%    100.0%      0.0%     
 flops   416 x    64 x   208       15673812058112       0.0%    100.0%      0.0%     
 flops inhomo. stacks                    49931124     100.0%      0.0%      0.0%
 flops total                       146.178614E+12       0.0%    100.0%      0.0%
 flops max/rank                      1.517821E+12       0.0%    100.0%      0.0%
 matmuls inhomo. stacks                     72202     100.0%      0.0%      0.0%
 matmuls total                         3420785020       0.0%    100.0%      0.0%
 number of processed stacks              87672330       0.1%     99.9%      0.0%
 average stack size                                     1.0      39.0       0.0
 marketing flops                   159.513794E+12
 -------------------------------------------------------------------------------
 # multiplications                          62040
 max memory usage/rank             377.298944E+06
 # max total images/rank                        2
 # max 3D layers                                1
 # MPI messages exchanged               230292480
 MPI messages size (bytes):
  total size                        22.401732E+12
  min size                           0.000000E+00
  max size                         692.224000E+03
  average size                      97.275133E+03
 MPI breakdown and total messages size (bytes):
             size <=      128           106862384                  2574568
       128 < size <=     8192            10603184              63366858048
      8192 < size <=    32768            30034400             681403296056
     32768 < size <=   131072            39444672            3098687407560
    131072 < size <=  4194304            43347840           18544560069360
   4194304 < size <= 16777216                   0                        0
  16777216 < size                               0                        0
 -------------------------------------------------------------------------------

 *** WARNING in dbcsr_mm.F:301 :: Using a non-square number of MPI ranks ***
 *** might lead to poor performance. Used ranks: 128 Suggested: 121 256  ***

 -------------------------------------------------------------------------------
 -                                                                             -
 -                      DBCSR MESSAGE PASSING PERFORMANCE                      -
 -                                                                             -
 -------------------------------------------------------------------------------
 ROUTINE             CALLS      AVE VOLUME [Bytes]
 MP_Bcast               97                     12.
 MP_Allreduce       317609                      9.
 MP_Alltoall        228077                  29386.
 MP_ISend          3899202                  48018.
 MP_IRecv          3889490                  47703.
 -------------------------------------------------------------------------------

 -------------------------------------------------------------------------------
 -                                                                             -
 -                                DBM STATISTICS                               -
 -                                                                             -
 -------------------------------------------------------------------------------
    M  x    N  x    K                                          COUNT     PERCENT
 -------------------------------------------------------------------------------

 -------------------------------------------------------------------------------
 -                                                                             -
 -                                GRID STATISTICS                              -
 -                                                                             -
 -------------------------------------------------------------------------------
 LP    KERNEL             BACKEND                              COUNT     PERCENT
 5     collocate ortho    CPU                              215360682      25.10%
 5     integrate ortho    CPU                              212321574      24.75%
 6     integrate ortho    CPU                              112421376      13.10%
 6     collocate ortho    CPU                              110130470      12.84%
 4     collocate ortho    CPU                               98358420      11.46%
 4     integrate ortho    CPU                               95925172      11.18%
 0     integrate general  CPU                                6684672       0.78%
 0     collocate general  CPU                                3760128       0.44%
 7     integrate ortho    CPU                                2564630       0.30%
 1     integrate general  CPU                                 393216       0.05%
 2     collocate ortho    CPU                                  43520       0.01%
 3     collocate ortho    CPU                                  26112       0.00%
 -------------------------------------------------------------------------------

 MEMORY| Estimated peak process memory [MiB]                                 360

 -------------------------------------------------------------------------------
 ----                             MULTIGRID INFO                            ----
 -------------------------------------------------------------------------------
 count for grid        1:        3458735          cutoff [a.u.]          300.00
 count for grid        2:        3470392          cutoff [a.u.]          100.00
 count for grid        3:        4696802          cutoff [a.u.]           33.33
 count for grid        4:        5301170          cutoff [a.u.]           11.11
 total gridlevel count  :       16927099

 -------------------------------------------------------------------------------
 -                                                                             -
 -                         MESSAGE PASSING PERFORMANCE                         -
 -                                                                             -
 -------------------------------------------------------------------------------

 ROUTINE             CALLS      AVE VOLUME [Bytes]
 MP_Group                4
 MP_Bcast            52626                   4114.
 MP_Allreduce       142587                    417.
 MP_Sync              8528
 MP_Alltoall         28837                2209342.
 MP_SendRecv        366268                  11544.
 MP_ISendRecv       348488                  11544.
 MP_Wait            519512
 MP_comm_split        2896
 MP_ISend           308924                  78558.
 MP_IRecv           308224                  78729.
 MP_Write_All          102                 355816.
 -------------------------------------------------------------------------------


 -------------------------------------------------------------------------------
 -                                                                             -
 -                           R E F E R E N C E S                               -
 -                                                                             -
 -------------------------------------------------------------------------------
 
 CP2K version 2024.3, the CP2K developers group (2024).
 CP2K is freely available from https://www.cp2k.org/ .
 
 T. D. Kuehne, M. Iannuzzi, M. Del Ben, V. V. Rybkin, P. Seewald, F. Stein, T. 
 Laino, R. Z. Khaliullin, O. Schuett, F. Schiffmann, D. Golze, J. Wilhelm, S. 
 Chulkov, M. H. Bani-Hashemian, V. Weber, U. Borstnik, M. Taillefumier, A. S. 
 Jakobovits, A. Lazzaro, H. Pabst, T. Mueller, R. Schade, M. Guidon, S. 
 Andermatt, N. Holmberg, G. K. Schenter, A. Hehn, A. Bussy, F. Belleflamme, G. 
 Tabacchi, A. Gloess, M. Lass, I. Bethune, C. J. Mundy, C. Plessl, M. Watkins, 
 J. VandeVondele, M. Krack, J. Hutter.
 J. Chem. Phys. 152, 194103 (2020).
 CP2K: An electronic structure and molecular dynamics software package - 
 Quickstep: Efficient and accurate electronic structure calculations.
 https://doi.org/10.1063/5.0007045

 O. Schuett, P. Messmer, J. Hutter, J. VandeVondele.
 Electronic Structure Calculations on Graphics Processing Units, 173-190 (2016).
 GPU-Accelerated Sparse Matrix-Matrix Multiplication for Linear Scaling Density 
 Functional Theory.
 https://doi.org/10.1002/9781118670712.ch8

 A. Heinecke, G. Henry, M. Hutchinson, H. Pabst.
 Proceedings of Intl. Supercomputing Conference, 981-991 (2016).
 LIBXSMM: Accelerating Small Matrix Multiplications by Runtime Code Generation.
 https://doi.org/10.1109/SC.2016.83

 J. Hutter, M. Iannuzzi, F. Schiffmann, J. VandeVondele.
 WIREs Comput Mol Sci. 4, 15-25 (2014).
 CP2K: atomistic simulations of condensed matter systems.
 https://doi.org/10.1002/wcms.1159

 U. Borstnik, J. VandeVondele, V. Weber, J. Hutter.
 Parallel Comput. 40, 47-58 (2014).
 Sparse matrix multiplication: The distributed block-compressed sparse row 
 library.
 https://doi.org/10.1016/j.parco.2014.03.012

 A. Marek, V. Blum, R. Johanni, V. Havu, B. Lang, T. Auckenthaler, A. Heinecke, 
 H. Bungartz, H. Lederer.
 J. Phys. Condens. Matter 26, 213201 (2014).
 The ELPA library: scalable parallel eigenvalue solutions for electronic 
 structure theory and computational science.
 https://doi.org/10.1088/0953-8984/26/21/213201

 J. VandeVondele, J. Hutter.
 J. Chem. Phys. 127, 114105 (2007).
 Gaussian basis sets for accurate calculations on molecular systems in gas and 
 condensed phases.
 https://doi.org/10.1063/1.2770708

 T. D. Khne, M. Krack, F. R. Mohamed, M. Parrinello.
 Phys. Rev. Lett. 98, 066401 (2007).
 Efficient and accurate Car-Parrinello-like approach to Born-Oppenheimer 
 molecular dynamics.
 https://doi.org/10.1103/PhysRevLett.98.066401

 J. VandeVondele, M. Krack, F. Mohamed, M. Parrinello, T. Chassaing, J. Hutter.
 Comput. Phys. Commun. 167, 103-128 (2005).
 QUICKSTEP: Fast and accurate density functional calculations using a mixed 
 Gaussian and plane waves approach.
 https://doi.org/10.1016/j.cpc.2004.12.014

 M. Krack.
 Theor. Chem. Acc. 114, 145-152 (2005).
 Pseudopotentials for H to Kr optimized for gradient-corrected 
 exchange-correlation functionals.
 https://doi.org/10.1007/s00214-005-0655-y

 M. Frigo, S. G. Johnson.
 Proc. IEEE 93, 216-231 (2005).
 The design and implementation of FFTW3.
 https://doi.org/10.1109/JPROC.2004.840301

 J. Kolafa.
 J. Comput. Chem. 25, 335-342 (2004).
 Time-reversible always stable predictor-corrector method for molecular dynamics 
 of polarizable molecules.
 https://doi.org/10.1002/jcc.10385

 J. VandeVondele, J. Hutter.
 J. Chem. Phys. 118, 4365-4369 (2003).
 An efficient orbital transformation method for electronic structure 
 calculations.
 https://doi.org/10.1063/1.1543154

 C. Hartwigsen, S. Goedecker, J. Hutter.
 Phys. Rev. B 58, 3641-3662 (1998).
 Relativistic separable dual-space Gaussian pseudopotentials from H to Rn.
 https://doi.org/10.1103/PhysRevB.58.3641

 S. L. Dudarev, G. A. Botton, S. Y. Savrasov, C. J. Humphreys, A. P. Sutton.
 Phys. Rev. B 57, 1505-1509 (1998).
 Electron-energy-loss spectra and the structural stability of nickel oxide: An 
 LSDA+U study.
 https://doi.org/10.1103/PhysRevB.57.1505

 G. Lippert, J. Hutter, M. Parrinello.
 Mol. Phys. 92, 477-487 (1997).
 A hybrid Gaussian and plane wave density functional scheme.
 https://doi.org/10.1080/002689797170220

 S. L. Dudarev, D. N. Manh, A. P. Sutton.
 Philos. Mag. B 75, 613-628 (1997).
 Effect of Mott-Hubbard correlations on the electronic structure and structural 
 stability of uranium dioxide.
 https://doi.org/10.1080/13642819708202343

 S. Goedecker, M. Teter, J. Hutter.
 Phys. Rev. B 54, 1703-1710 (1996).
 Separable dual-space Gaussian pseudopotentials.
 https://doi.org/10.1103/PhysRevB.54.1703

 J. P. Perdew, K. Burke, M. Ernzerhof.
 Phys. Rev. Lett. 77, 3865-3868 (1996).
 Generalized gradient approximation made simple.
 https://doi.org/10.1103/PhysRevLett.77.3865


 -------------------------------------------------------------------------------
 -                                                                             -
 -                                T I M I N G                                  -
 -                                                                             -
 -------------------------------------------------------------------------------
 SUBROUTINE                       CALLS  ASD         SELF TIME        TOTAL TIME
                                MAXIMUM       AVERAGE  MAXIMUM  AVERAGE  MAXIMUM
 CP2K                                 1  1.0    0.149    0.171 1190.313 1190.320
 cp_geo_opt                           1  2.0    0.003    0.006 1189.337 1189.344
 geoopt_bfgs                          1  3.0    0.034    0.042 1189.334 1189.341
 cp_eval_at                          17  4.0    0.010    0.017 1187.510 1187.518
 qs_forces                           16  5.0    0.015    0.018 1167.974 1167.981
 qs_energies                         17  5.9    0.008    0.011 1145.742 1145.758
 scf_env_do_scf                      17  6.9    0.006    0.010  956.171  956.175
 scf_env_do_scf_inner_loop          670  8.0    0.023    0.134  921.132  921.967
 rebuild_ks_matrix                  686  9.9    0.005    0.006  491.653  492.872
 qs_ks_build_kohn_sham_matrix       686 10.9    0.136    0.158  491.649  492.867
 qs_ks_update_qs_env                696  9.0    0.012    0.021  474.522  475.720
 sum_up_and_integrate               686 11.9    0.029    0.043  310.080  310.226
 integrate_v_rspace                1372 12.9    0.056    0.079  309.248  309.682
 qs_rho_update_rho_low              687  9.0    0.009    0.011  281.110  281.192
 calculate_rho_elec                1374 10.0    0.511    0.580  281.101  281.184
 dbcsr_multiply_generic           62040 12.8    2.178    2.272  268.280  276.686
 grid_integrate_task_list          1372 13.9  225.033  233.037  225.033  233.037
 grid_collocate_task_list          1374 11.0  203.982  211.438  203.982  211.438
 multiply_cannon                  62040 13.8   11.911   12.669  179.173  206.342
 qs_scf_new_mos                     670  9.0    0.005    0.006  188.187  189.915
 qs_scf_loop_do_ot                  670 10.0    0.006    0.008  188.182  189.910
 multiply_cannon_loop             62040 14.8    4.374    4.765  151.229  175.368
 ot_scf_mini                        670 11.0    0.026    0.032  173.490  174.697
 fft_wrap_pw1pw2                  23005 14.2    0.445    0.522  152.362  171.070
 scf_post_calculation_gpw            17  6.9    0.005    0.007  164.668  164.673
 fft_wrap_pw1pw2_300              14563 15.7    5.759    6.287  141.577  160.413
 qs_vxc_create                      686 11.9    0.018    0.022  144.949  146.014
 xc_vxc_pw_create                   686 12.9    2.628    3.339  144.931  146.000
 fft3d_ps                         23005 16.2   45.469   50.588  120.060  142.357
 ot_mini                           3158 10.4    0.035    0.044  133.911  135.411
 xc_pw_derive                      8232 14.9    0.074    0.086   97.953  114.752
 mp_waitall_1                   7331072 16.9   78.611  111.523   78.611  111.523
 multiply_cannon_multrec         992640 15.8   65.420  107.830   65.636  108.051
 make_lumo_gpw                       17  7.9    0.002    0.003   97.500   97.504
 ot_eigensolver                      34  8.9    0.041    0.045   97.189   97.191
 qs_ot_get_derivative              2601 12.0    0.019    0.023   95.939   96.794
 mp_alltoall_z22v                 23005 18.2   62.106   96.237   62.106   96.237
 multiply_cannon_metrocomm3      992640 15.8    2.392    2.598   56.429   96.139
 xc_rho_set_and_dset_create         686 13.9    2.355    3.706   75.084   79.253
 xc_pw_divergence                  1372 13.9    0.033    0.042   64.927   78.197
 density_rs2pw                     1374 11.0    0.071    0.082   69.752   76.954
 potential_pw2rs                   1372 13.9    0.101    0.116   69.959   70.455
 qs_ot_get_p                       3957 10.6    0.023    0.029   59.893   62.945
 make_m2s                        124080 13.8    1.686    1.859   56.191   59.390
 yz_to_x                           8389 17.4    3.541    4.879   35.391   58.169
 transfer_pw2rs                    5538 14.9    0.078    0.093   52.197   52.480
 write_available_results             17  7.9    0.002    0.004   51.794   51.836
 write_mo_free_results               17  8.9    2.040    2.103   51.161   51.204
 make_images                     124080 14.8    3.271    3.564   45.736   48.490
 transfer_rs2pw                    5802 11.9    0.092    0.129   42.400   48.351
 x_to_yz                           8988 17.7    5.953    7.458   35.812   46.026
 mp_waitany                      136920 15.3   34.876   44.151   34.876   44.151
 transfer_pw2rs_300                1422 15.8   18.132   19.081   36.442   38.185
 qs_ot_p2m_diag                    2812 11.3    0.264    0.340   35.736   35.931
 transfer_rs2pw_300                1476 12.9   10.868   13.896   27.976   34.960
 qs_ot_get_derivative_diag         1601 12.6    0.031    0.034   34.481   34.742
 apply_preconditioner_dbcsr        2730 13.0    0.007    0.008   31.057   34.482
 apply_single                      2730 14.0    0.008    0.009   31.050   34.475
 init_scf_loop                       26  8.0    0.004    0.006   34.414   34.439
 mp_sum_l                        293825 13.9   20.381   34.239   20.381   34.239
 multiply_cannon_metrocomm4      930600 15.8    2.320    2.609   11.245   30.207
 mp_irecv_dv                    2016923 16.8    9.503   29.604    9.503   29.604
 qs_ot_get_derivative_taylor       1000 13.7    0.021    0.023   28.626   29.262
 mp_alltoall_d11v                 50997 15.1   20.632   27.387   20.632   27.387
 ot_diis_step                       670 13.0    0.086    0.092   27.315   27.327
 cp_dbcsr_syevd                    2812 12.3    0.903    0.971   26.798   26.829
 hirshfeld_integration               34  9.9   24.318   25.532   26.402   26.415
 xc_functional_eval                 686 14.9    0.011    0.014   21.978   25.359
 pbe_lsd_eval                       686 15.9   21.966   25.348   21.966   25.348
 mp_sum_d                         61931 14.3   15.891   24.537   15.891   24.537
 cp_fm_redistribute_end            2896 14.2   12.530   24.341   12.638   24.425
 cp_fm_diag_elpa                    561 14.4    0.004    0.006   24.226   24.384
 -------------------------------------------------------------------------------

 The number of warnings for this run is : 3
 
 -------------------------------------------------------------------------------
  **** **** ******  **  PROGRAM ENDED AT                 2025-06-16 15:42:47.187
 ***** ** ***  *** **   PROGRAM RAN ON                                 nid005154
 **    ****   ******    PROGRAM RAN BY                                    cahart
 ***** **    ** ** **   PROGRAM PROCESS ID                                 89849
  **** **  *******  **  PROGRAM STOPPED IN /mnt/lustre/a2fs-work2/work/e05/e05/c
                                           ahart/postdoc2/work/group/tio2/anatas
                                           e/cell-441/geo-opt/mp-390/hole/from-n
                                           eutral/pbe-u-o/u-3.5
