     192
 i =        7, E =     -5779.5103569320
Ti        -0.0000744060        0.0013242740       -0.0000649048
Ti         0.0000733708        0.0002247790       -0.0000304026
Ti         0.0001975350        0.0003934012        0.0017506797
Ti         0.0002191485        0.0002071160       -0.0022630557
Ti         0.0004367809        0.0003042057       -0.0000667729
Ti         0.0002500418       -0.0002663807        0.0001078816
Ti        -0.0001050677        0.0001861993        0.0017565093
Ti         0.0002421215        0.0002099088       -0.0013755904
Ti         0.0001478324        0.0002354147       -0.0012284396
Ti         0.0001981318       -0.0002169898        0.0026955891
Ti         0.0001859639        0.0000831529        0.0000632414
Ti        -0.0004250556       -0.0000841645        0.0000841426
Ti         0.0010535009       -0.0001031850        0.0001301507
Ti        -0.0002059331        0.0001614477       -0.0000829051
Ti        -0.0003628772        0.0002496179       -0.0019866443
Ti         0.0001762228        0.0001823410        0.0015750022
Ti         0.0001204499        0.0000884816       -0.0000605917
Ti         0.0006586767       -0.0013742861       -0.0001540993
Ti         0.0001925445        0.0001228111        0.0015103970
Ti         0.0002767132       -0.0001235479       -0.0016603602
Ti         0.0001739448       -0.0000715402       -0.0001036765
Ti         0.0000898801       -0.0002560821       -0.0000084253
Ti        -0.0000843341        0.0001423942        0.0009904792
Ti        -0.0003116862        0.0002196561       -0.0016156852
Ti         0.0001249623       -0.0001435111       -0.0010905297
Ti         0.0002043208       -0.0004717899        0.0015104935
Ti        -0.0002749664        0.0001352001        0.0000161751
Ti        -0.0003435954        0.0005294665        0.0001131658
Ti         0.0002605217        0.0008159884       -0.0000678409
Ti        -0.0003787072       -0.0001714290        0.0000320832
Ti        -0.0000661035        0.0001035880        0.0011131939
Ti         0.0001657623       -0.0000754334       -0.0012355554
Ti        -0.0002397218        0.0001958958       -0.0013461964
Ti         0.0002705212       -0.0002659961        0.0012879845
Ti         0.0000644355        0.0001064808       -0.0000064430
Ti        -0.0008794720        0.0000623025        0.0000750910
Ti        -0.0001911189       -0.0002091152        0.0014976008
Ti         0.0001157316        0.0001334956       -0.0010780097
Ti         0.0005215202       -0.0000950593        0.0000167210
Ti        -0.0002521348        0.0001199042       -0.0001477699
Ti         0.0001272449       -0.0001908502        0.0001542473
Ti        -0.0004363016        0.0008350286       -0.0000338240
Ti        -0.0002954944       -0.0001053408       -0.0020110974
Ti         0.0001518303        0.0001411754        0.0009630141
Ti         0.0004269750       -0.0004123776       -0.0000338693
Ti        -0.0001834625       -0.0003210513       -0.0000928364
Ti        -0.0000794199        0.0000894280        0.0009495147
Ti        -0.0003620763       -0.0000821356       -0.0012835323
Ti        -0.0002176484       -0.0001567201       -0.0010514168
Ti         0.0001737291       -0.0002519506        0.0012222258
Ti        -0.0001586985        0.0000538578       -0.0000481377
Ti        -0.0001099591       -0.0004808924        0.0000068879
Ti        -0.0000695781       -0.0002612666        0.0015871204
Ti         0.0000967711       -0.0000815226       -0.0008507962
Ti         0.0001371659       -0.0002196996        0.0000655568
Ti        -0.0001006280       -0.0006264757       -0.0000576984
Ti        -0.0002459312        0.0001441868       -0.0010711510
Ti        -0.0000904777       -0.0001935509        0.0011280473
Ti        -0.0000463801        0.0001062630        0.0000424271
Ti        -0.0002250749       -0.0002221948        0.0001006977
Ti        -0.0002822066        0.0000186424        0.0000211202
Ti        -0.0002734085       -0.0001842850        0.0000317596
Ti        -0.0001074583       -0.0002317395        0.0008551597
Ti        -0.0002280265       -0.0000922752       -0.0010219649
O        -0.0000534830       -0.0000817472       -0.0001445852
O        -0.0000758377       -0.0004719256       -0.0001057560
O         0.0000560879        0.0000096680       -0.0007413577
O        -0.0007880032        0.0000032205        0.0016077604
O        -0.0000019293       -0.0000030358        0.0010091132
O        -0.0000077536       -0.0009686121       -0.0014831906
O        -0.0003399906        0.0000177827        0.0001536849
O         0.0000848948        0.0001698279        0.0001599066
O         0.0000530749       -0.0001899878        0.0000703906
O         0.0000369459        0.0000607393       -0.0001594838
O         0.0002530191       -0.0000045383       -0.0008634620
O        -0.0003917640       -0.0000045067        0.0011978562
O        -0.0000061143       -0.0002196106        0.0005806511
O        -0.0000162608        0.0001223128       -0.0018095226
O        -0.0002050612       -0.0000230525        0.0001512366
O         0.0002440850       -0.0000747310       -0.0000349333
O        -0.0002695584       -0.0000784110        0.0000362427
O         0.0000583915       -0.0000371336        0.0001435267
O         0.0004203742        0.0000227812        0.0015694987
O        -0.0002024729        0.0000033503       -0.0008021555
O         0.0000342795       -0.0001201549       -0.0001480881
O         0.0000737479        0.0003030182       -0.0000540519
O         0.0000002022       -0.0002122580       -0.0011781554
O         0.0000056281        0.0002774546        0.0007468329
O        -0.0000274483        0.0000384391        0.0002463147
O        -0.0000591511        0.0003677266       -0.0000900463
O         0.0000465781        0.0000044863       -0.0004817954
O         0.0006048611       -0.0000046285        0.0013479566
O         0.0000029891        0.0001010026        0.0006216024
O         0.0000212767        0.0008766891       -0.0013845803
O         0.0002953919        0.0000118525        0.0000983097
O         0.0001011905        0.0001055409       -0.0002235828
O         0.0001761415        0.0000321635        0.0000108144
O         0.0000528020       -0.0004495155       -0.0000698637
O         0.0000520006        0.0000104585       -0.0007206309
O        -0.0008547690       -0.0000568374        0.0013410101
O        -0.0000111506       -0.0000235686        0.0008447447
O        -0.0000090868       -0.0006540023       -0.0011531366
O        -0.0002639528       -0.0000313678        0.0001560640
O         0.0000200403       -0.0002200582        0.0001428363
O        -0.0000163605       -0.0006189601       -0.0012784218
O         0.0000150386        0.0000421215        0.0005997218
O         0.0000349637       -0.0003052987       -0.0001578773
O        -0.0000591609        0.0000210961       -0.0000470670
O        -0.0004494979        0.0000538873        0.0010311766
O         0.0000425084        0.0000016810       -0.0011828176
O         0.0000610389        0.0000210081       -0.0000242535
O        -0.0005114676       -0.0000164678        0.0000699554
O         0.0000287935       -0.0001976782        0.0000908013
O        -0.0000658714       -0.0000305551       -0.0001047974
O         0.0002056539        0.0000172285       -0.0004671294
O        -0.0002745627       -0.0000275951        0.0010283431
O        -0.0000004355       -0.0002074178        0.0006765955
O         0.0000764184        0.0002084089       -0.0011545959
O        -0.0001185051        0.0000376139        0.0001756773
O         0.0002606179        0.0000306715       -0.0000015013
O        -0.0000833513        0.0000332610       -0.0013129932
O         0.0000244293       -0.0001540408        0.0005258788
O        -0.0001970146        0.0000167943       -0.0000162839
O        -0.0000318713        0.0000078749        0.0001848435
O        -0.0000668431        0.0000039687       -0.0001790953
O        -0.0001042021       -0.0002015561        0.0000220451
O         0.0003285056       -0.0000043652        0.0014668465
O        -0.0001485891        0.0000237445       -0.0004054582
O        -0.0000215997       -0.0001163416       -0.0001611462
O        -0.0001624381        0.0001738441        0.0000139181
O         0.0000587247        0.0000067338        0.0010425004
O        -0.0002549777       -0.0000022121       -0.0005746071
O        -0.0000276641       -0.0001494336       -0.0010770735
O         0.0000166755        0.0002112631        0.0005925889
O        -0.0001416326        0.0001725184       -0.0000730030
O         0.0001911767        0.0000437386        0.0000710330
O        -0.0000086370        0.0002709901        0.0009259864
O         0.0000460423       -0.0002066194       -0.0009543005
O        -0.0001915230        0.0000212400        0.0001020830
O         0.0001906172        0.0001787250       -0.0001003525
O         0.0000758897        0.0002014347        0.0001235956
O        -0.0000488117       -0.0001127869       -0.0001041920
O         0.0003169524        0.0000082210       -0.0006427936
O        -0.0002708085        0.0000245593        0.0008866111
O         0.0000943578        0.0001417962        0.0002652208
O         0.0000481177        0.0004094032       -0.0000439630
O         0.0000626434        0.0000259349       -0.0005479812
O         0.0006302618       -0.0000246881        0.0011806174
O        -0.0000063083        0.0001123310        0.0005541136
O         0.0000218075        0.0005067713       -0.0010539562
O         0.0002296700       -0.0000126263        0.0001163195
O         0.0000375721       -0.0001355191       -0.0002210149
O        -0.0000177558        0.0005994067       -0.0012965422
O         0.0000252646        0.0000721245        0.0004220288
O         0.0000453036        0.0002265177       -0.0001219508
O        -0.0000069009        0.0001904439        0.0001937037
O         0.0004415772        0.0000196993        0.0010065902
O         0.0000586516       -0.0000071651       -0.0006744396
O         0.0000242709       -0.0000328423       -0.0002427937
O         0.0003465823       -0.0000123121        0.0000413280
O        -0.0000913971        0.0000535159        0.0000843645
O        -0.0000293770       -0.0003130848       -0.0001542928
O         0.0000345026       -0.0000053098       -0.0006553295
O        -0.0004574118       -0.0000100162        0.0008917733
O         0.0000000101        0.0000326281        0.0007621774
O        -0.0000041401       -0.0004302642       -0.0009440583
O        -0.0003665922        0.0000447588        0.0001488212
O         0.0000474473       -0.0000218637       -0.0000672263
O        -0.0000130973       -0.0001366970        0.0001454217
O         0.0000762579       -0.0000232758       -0.0001659461
O         0.0002365564       -0.0000086163       -0.0007904010
O        -0.0001771074       -0.0000290618        0.0008172631
O        -0.0000082561       -0.0001517305        0.0005087239
O         0.0000278764        0.0000489096       -0.0008982479
O        -0.0001448780       -0.0000123948        0.0001561893
O         0.0001870721       -0.0001481349       -0.0001463506
O        -0.0001448245       -0.0001201403       -0.0001294532
O         0.0000153121        0.0000070950        0.0001822432
O         0.0000031992       -0.0000236709        0.0009460361
O        -0.0001835743       -0.0000107025       -0.0006498260
O         0.0000418563       -0.0000879020       -0.0001570427
O        -0.0000298347        0.0001534961        0.0001510541
O        -0.0000300155       -0.0001504431       -0.0007998851
O        -0.0000091021        0.0002037238        0.0005955038
O        -0.0000685900        0.0000138043        0.0002668130
O        -0.0000382833        0.0002460903       -0.0001330267
O         0.0000755362       -0.0000043264       -0.0004192665
O         0.0004299581        0.0000009985        0.0009507895
O        -0.0000107104        0.0000835486        0.0005815973
O        -0.0000323235        0.0003649112       -0.0009095527
O         0.0002926155        0.0000355144        0.0000938906
O         0.0001086436        0.0000233691       -0.0002567131
     192
 i =        8, E =     -5779.5107457381
Ti         0.0002888756        0.0029880888       -0.0002438808
Ti         0.0003251732        0.0006546620       -0.0000801174
Ti         0.0001818531        0.0010923710        0.0013023410
Ti         0.0006297712        0.0005259264       -0.0021305672
Ti         0.0000834664        0.0020062164       -0.0003671423
Ti         0.0006992855       -0.0003212436        0.0001816537
Ti        -0.0005465770        0.0005228196        0.0003125936
Ti         0.0005660404        0.0002664552       -0.0002089823
Ti         0.0002217298        0.0007596187        0.0000885367
Ti         0.0002563663       -0.0002104102        0.0037996875
Ti         0.0002984142        0.0002486806        0.0000119064
Ti        -0.0024788109        0.0012390823        0.0003067847
Ti         0.0024209681        0.0009212516        0.0004496425
Ti        -0.0003653211        0.0006147777       -0.0001478820
Ti        -0.0006943996        0.0006671255       -0.0021653809
Ti         0.0006132273        0.0004653285        0.0000908153
Ti         0.0002267832        0.0001252356       -0.0000660523
Ti         0.0009640058       -0.0034011252       -0.0004706981
Ti         0.0001958015        0.0001491690       -0.0001930556
Ti         0.0007211435       -0.0007060013       -0.0012279320
Ti         0.0006883681       -0.0014094622       -0.0004655615
Ti         0.0003551350       -0.0006600640       -0.0000364906
Ti        -0.0000821267        0.0001426646       -0.0002856664
Ti        -0.0006825166        0.0003301892       -0.0002262985
Ti         0.0002244469       -0.0004070701        0.0007484020
Ti         0.0002757554       -0.0012100587        0.0008459323
Ti        -0.0004654690        0.0003185757        0.0000194702
Ti        -0.0000415445       -0.0002648393        0.0004878796
Ti         0.0007389439        0.0006715380       -0.0000962821
Ti        -0.0006824671       -0.0001599662        0.0000856190
Ti        -0.0002504310        0.0000277400       -0.0000204414
Ti         0.0003925736       -0.0003111677        0.0003137109
Ti        -0.0002822667        0.0007009994        0.0002644651
Ti         0.0010711154       -0.0002941976        0.0005861247
Ti         0.0001107957        0.0001083655       -0.0000183604
Ti        -0.0023346202       -0.0013088429        0.0002391818
Ti        -0.0010320038       -0.0001643035        0.0010967208
Ti         0.0001692034        0.0003596515        0.0004360058
Ti         0.0020658254       -0.0014884742        0.0001729663
Ti        -0.0002671898        0.0001044429       -0.0001609832
Ti         0.0003822955       -0.0001977000        0.0001540223
Ti        -0.0003229347        0.0006907023       -0.0001292326
Ti        -0.0005447517       -0.0006509290       -0.0019327670
Ti         0.0003124857        0.0001422945       -0.0001934428
Ti         0.0001242512        0.0001141004       -0.0001965161
Ti        -0.0002941006       -0.0007611668       -0.0001642475
Ti        -0.0000770495        0.0000843086       -0.0007219365
Ti        -0.0007572860       -0.0003078665       -0.0001430554
Ti        -0.0001999426       -0.0005202859        0.0003316046
Ti         0.0005648922       -0.0005076972       -0.0004665871
Ti        -0.0002752077        0.0000504614       -0.0000147589
Ti        -0.0005711736        0.0001912471        0.0003167713
Ti        -0.0004809567       -0.0005809323        0.0002126050
Ti         0.0000835777       -0.0001282029        0.0004861964
Ti         0.0002031113       -0.0003714381        0.0000161601
Ti        -0.0006310210       -0.0004050141       -0.0002695428
Ti        -0.0002960680        0.0003567431        0.0001781312
Ti        -0.0001434580       -0.0001603647       -0.0009467394
Ti        -0.0003222667        0.0007832839        0.0001439419
Ti        -0.0006086332       -0.0002012172        0.0001572087
Ti         0.0000153558       -0.0005396261        0.0000418186
Ti        -0.0004723537       -0.0003728814        0.0000291932
Ti        -0.0001682649       -0.0002600187       -0.0004073688
Ti        -0.0003091807       -0.0001946476        0.0005417461
O         0.0000100060       -0.0007281225       -0.0002460570
O         0.0000301649       -0.0007280167       -0.0000986844
O         0.0000030203       -0.0000913727       -0.0004774666
O        -0.0014688374       -0.0004435165        0.0008972337
O        -0.0000539972       -0.0002487314        0.0007182514
O         0.0000003312       -0.0018515232       -0.0006599667
O        -0.0005382409       -0.0001625442        0.0002051329
O        -0.0000719382       -0.0001989927        0.0002092998
O        -0.0000151250       -0.0008606900        0.0004449514
O        -0.0002047562        0.0000849533       -0.0000818511
O         0.0005101924       -0.0000498636       -0.0003140548
O        -0.0007611915       -0.0000313546       -0.0000428036
O        -0.0000205682       -0.0004948462        0.0001798978
O        -0.0001222976        0.0002198257       -0.0014232509
O        -0.0002489675        0.0000148600        0.0003373267
O         0.0010335599       -0.0000463743       -0.0002354334
O        -0.0008735932       -0.0000208827       -0.0001962771
O         0.0002942444       -0.0000892279        0.0002416797
O         0.0010320019       -0.0004657641        0.0010156383
O        -0.0004554928       -0.0000541047       -0.0002755017
O        -0.0000682863       -0.0002346731       -0.0003888990
O        -0.0000637079        0.0011023036       -0.0001214508
O        -0.0000401328       -0.0002563470        0.0003358247
O        -0.0000630172        0.0006019723        0.0004316492
O        -0.0000181178        0.0006050658        0.0005425122
O         0.0000044711        0.0006887837       -0.0002806875
O         0.0000899128       -0.0000327536       -0.0000489513
O         0.0009922343       -0.0000595881       -0.0000361659
O        -0.0000368276        0.0003239514        0.0000245736
O        -0.0001348519        0.0016831102       -0.0004099264
O         0.0002705316       -0.0000557625        0.0003560201
O         0.0000734341       -0.0000375141       -0.0005564087
O        -0.0001996718       -0.0003375362        0.0002191134
O        -0.0000330406       -0.0008155576       -0.0000610761
O        -0.0000043454        0.0000014206       -0.0002071862
O        -0.0014994566        0.0005493556        0.0006097808
O         0.0000576817       -0.0003127686        0.0006543272
O        -0.0003173880       -0.0009410387        0.0001361764
O        -0.0001463991        0.0000017533        0.0004070594
O        -0.0001670737        0.0002638874        0.0001614028
O         0.0003058931       -0.0009906302        0.0000047965
O        -0.0000346216       -0.0000671568        0.0002543540
O        -0.0001144938       -0.0003738424       -0.0003729537
O         0.0002092291       -0.0004529056        0.0001613312
O        -0.0004583140       -0.0002454712       -0.0001278205
O        -0.0000425553       -0.0000002474       -0.0010529908
O         0.0000646855       -0.0001461783       -0.0003688291
O        -0.0008228791        0.0000661527       -0.0001898238
O        -0.0000750898       -0.0003105830        0.0004240767
O         0.0001889885        0.0000059497        0.0000589316
O         0.0003221558        0.0000059038       -0.0001154343
O        -0.0005383742        0.0001105104       -0.0003267669
O         0.0000163975       -0.0004782351        0.0001863106
O        -0.0004670321        0.0002945068       -0.0001977206
O        -0.0002513988       -0.0000290597        0.0004146788
O         0.0009148303        0.0000971543       -0.0001854600
O         0.0005503928        0.0000013798       -0.0005305439
O        -0.0000214616       -0.0002720383        0.0000912951
O        -0.0008481407        0.0001131825       -0.0003303800
O        -0.0000941777       -0.0000306466        0.0004677656
O        -0.0000502039        0.0000640346       -0.0004449875
O         0.0001000789       -0.0003066217        0.0003867744
O         0.0008499771        0.0005713205        0.0007533459
O        -0.0002510059       -0.0000081235       -0.0000824367
O         0.0000258055       -0.0000897963       -0.0004154384
O         0.0002302299        0.0006913280        0.0002086408
O         0.0001234934       -0.0002598297       -0.0003304506
O        -0.0006718743        0.0000092190       -0.0002743302
O         0.0000770496       -0.0001120053        0.0001207080
O        -0.0000323384        0.0003549961        0.0001220673
O        -0.0003943719       -0.0001076407       -0.0004594272
O         0.0004998709       -0.0000428925       -0.0001877700
O         0.0000439834        0.0005810192        0.0006074591
O        -0.0000438352       -0.0002523810        0.0002465251
O        -0.0005681304       -0.0000189105        0.0002737131
O         0.0003172307       -0.0001082154       -0.0004502552
O        -0.0001767943        0.0007326057        0.0003831460
O         0.0000673307       -0.0000859902       -0.0003199797
O         0.0007486529       -0.0000097863       -0.0003577752
O        -0.0003087897       -0.0001136799       -0.0003808488
O        -0.0000741764        0.0001366925        0.0005358129
O        -0.0000470494        0.0007000609       -0.0001254022
O         0.0001071210       -0.0000145990        0.0000078494
O         0.0010318373        0.0000937029        0.0000000738
O         0.0000177916        0.0003781140        0.0000726195
O        -0.0001850568        0.0007139172        0.0003951121
O         0.0002973114        0.0000153712        0.0004310202
O         0.0002289549        0.0000871101       -0.0005466669
O         0.0003245301        0.0009776819        0.0000190183
O        -0.0000181616        0.0001629269        0.0000192769
O        -0.0000802454        0.0001935551       -0.0004537847
O         0.0000861272        0.0002969531        0.0004514358
O         0.0004103434       -0.0001225625       -0.0001962449
O         0.0001394772        0.0000040645        0.0000051796
O         0.0001243290       -0.0000571040       -0.0005061553
O         0.0006977296        0.0000364167        0.0002548273
O        -0.0000183883        0.0001374120        0.0004264217
O         0.0001147561       -0.0003065860       -0.0003227836
O        -0.0000635755        0.0000735239       -0.0003343678
O        -0.0004331282        0.0001056366       -0.0004461750
O         0.0000380083       -0.0001035765        0.0002667885
O         0.0000392634       -0.0003679363        0.0001553924
O        -0.0005643344        0.0001010163        0.0002609709
O        -0.0001560892        0.0000896523       -0.0004170130
O         0.0000023074       -0.0003567464        0.0004837471
O         0.0000300921       -0.0000777168       -0.0003647969
O         0.0004733337        0.0000450575       -0.0002227222
O        -0.0001404115        0.0000071695       -0.0003474405
O         0.0000231941       -0.0002653173        0.0000928027
O         0.0000735860        0.0000150431        0.0006189304
O        -0.0001323723        0.0000512116        0.0003746286
O         0.0004229787        0.0000219091       -0.0004594522
O        -0.0001828797        0.0000019143       -0.0004973678
O         0.0002160100        0.0001789560        0.0002873605
O         0.0000054567        0.0001644298       -0.0002461934
O        -0.0004048105        0.0000477216       -0.0000891247
O        -0.0000460162       -0.0001463447       -0.0003587095
O         0.0000178706        0.0001292388        0.0004992663
O         0.0000052163       -0.0001477297        0.0004972227
O         0.0000497637        0.0003464853        0.0001646381
O        -0.0000124757        0.0002358838        0.0005014250
O         0.0001209702        0.0003426666       -0.0003907919
O         0.0001517232        0.0000250941        0.0000144271
O         0.0004044099        0.0000773080       -0.0003751932
O         0.0000346327        0.0002086055        0.0000033871
O         0.0000305923        0.0002709970        0.0002389718
O         0.0002688717        0.0000113492        0.0003443936
O         0.0000857433        0.0000283932       -0.0004943183
     192
 i =        9, E =     -5779.5135423792
Ti         0.0001668016        0.0305303801       -0.0058040691
Ti         0.0012199488        0.0027796980       -0.0003383093
Ti        -0.0002887714        0.0072224013       -0.0016777600
Ti         0.0028016908        0.0024770593       -0.0027345025
Ti        -0.0015064489        0.0037626749       -0.0015026880
Ti         0.0035854305        0.0000483676        0.0020252945
Ti        -0.0017391828        0.0018377858       -0.0053946613
Ti         0.0022579635        0.0008708005        0.0028598828
Ti         0.0001111318        0.0016395494        0.0048177845
Ti        -0.0001227817        0.0005225304        0.0259844903
Ti         0.0009294269        0.0009297918       -0.0000327767
Ti        -0.0098423592        0.0047025969        0.0017304299
Ti         0.0081767133        0.0032228834        0.0017505422
Ti        -0.0014589441        0.0029427419       -0.0004504624
Ti        -0.0032589145        0.0029541829       -0.0028852209
Ti         0.0017084978        0.0016358310       -0.0043470855
Ti         0.0003717189       -0.0002296577       -0.0003241607
Ti         0.0018679305       -0.0290277349       -0.0058555006
Ti        -0.0002597786       -0.0005711419       -0.0036793102
Ti         0.0032161540       -0.0021678185       -0.0018484599
Ti        -0.0000365197       -0.0051005187       -0.0013768504
Ti         0.0013281711       -0.0027045200       -0.0000833222
Ti         0.0004008116        0.0002530740       -0.0039828969
Ti        -0.0019511923        0.0010615509        0.0042050175
Ti         0.0003153596       -0.0018800468        0.0046324148
Ti        -0.0001157283       -0.0072660649       -0.0006955772
Ti        -0.0008573219        0.0009397771        0.0000677480
Ti         0.0017870915       -0.0007768884        0.0007985172
Ti         0.0003539654       -0.0007194754       -0.0004133944
Ti        -0.0035644437        0.0003752661        0.0017293589
Ti        -0.0004866946       -0.0007134136       -0.0032172113
Ti         0.0019037472       -0.0004630441        0.0031123188
Ti        -0.0007189666        0.0017053200        0.0060940573
Ti         0.0052899474        0.0003893297       -0.0028226561
Ti         0.0004597189       -0.0003158321       -0.0000364927
Ti        -0.0102553942       -0.0027067167        0.0021340565
Ti        -0.0053276487        0.0006785586       -0.0024203923
Ti         0.0004399505        0.0003746519        0.0038688869
Ti         0.0076037912       -0.0020916213        0.0011655495
Ti        -0.0006035124       -0.0004377441       -0.0003657635
Ti         0.0018720348        0.0001479190        0.0006124230
Ti         0.0010117428       -0.0013090631       -0.0003259372
Ti        -0.0029082998       -0.0020548712       -0.0045257517
Ti         0.0005306148       -0.0004971840       -0.0026831317
Ti        -0.0004389998       -0.0001976390       -0.0005149036
Ti        -0.0013594804       -0.0029950346       -0.0004418762
Ti         0.0003420267       -0.0004339613       -0.0037182219
Ti        -0.0023721697       -0.0004568326        0.0029181690
Ti        -0.0006790578       -0.0023137943        0.0047191033
Ti         0.0018643768       -0.0016370964       -0.0036051864
Ti        -0.0003801195       -0.0003080926        0.0000482689
Ti        -0.0001360080        0.0017519331        0.0009738840
Ti        -0.0018524308       -0.0019242205       -0.0040180536
Ti         0.0004132848       -0.0006347413        0.0030118024
Ti         0.0008608250       -0.0009044084        0.0001270787
Ti        -0.0006471204       -0.0004370431       -0.0004005220
Ti         0.0000293397        0.0002942296        0.0038815639
Ti         0.0001847669        0.0003627581       -0.0059136206
Ti         0.0002462788        0.0003488565        0.0000329796
Ti        -0.0020747189        0.0002986211        0.0007365784
Ti         0.0012617385       -0.0011935291        0.0000551362
Ti        -0.0009965358       -0.0010626868        0.0001476128
Ti         0.0002992997       -0.0002994405       -0.0034657982
Ti        -0.0002042510       -0.0007354728        0.0038733968
O         0.0002169296       -0.0083742148       -0.0027260315
O         0.0000603535       -0.0028155742       -0.0002775822
O         0.0001362372       -0.0004434517        0.0000494190
O        -0.0078008814       -0.0040383764        0.0003339275
O        -0.0002384490       -0.0019591270        0.0003367267
O         0.0001264388       -0.0087336089        0.0025419985
O        -0.0015864711       -0.0007171803        0.0007686290
O         0.0000085248       -0.0013428403        0.0020666726
O        -0.0000052045       -0.0021202147        0.0019943266
O        -0.0005951127       -0.0002299359       -0.0004123584
O         0.0013476825       -0.0001565097        0.0013862928
O        -0.0025416722       -0.0001870083       -0.0028109681
O        -0.0000323402       -0.0011843359       -0.0013464098
O        -0.0004660054       -0.0004147076       -0.0074405258
O        -0.0007528968       -0.0000199087        0.0006876588
O         0.0034995252        0.0000741794       -0.0009667173
O        -0.0029727909        0.0001165465       -0.0006128228
O         0.0020074708       -0.0006012226        0.0010591952
O         0.0081184683       -0.0039949974        0.0000839302
O        -0.0012570954       -0.0001661086        0.0011857363
O        -0.0001120701        0.0001934080       -0.0005421856
O        -0.0000904790        0.0077292216       -0.0030090196