     192
 i =        7, E =     -5779.5103569320
Ti         0.0002059588        0.0040795693       -0.0001665242
Ti         1.8882271453        1.8886185781        4.8075151616
Ti         0.0011754956        1.8883905490        2.4056232521
Ti         1.8883160641        0.0012834926        7.2086363868
Ti         0.0020766614        3.7760154019        0.0027402477
Ti         1.8887509136       13.2373084937        4.8058705717
Ti        11.3499917995        1.8882743644        2.4075940995
Ti         5.6692631280        0.0011918034        7.2141658198
Ti         1.8883007939        3.7766942692        7.2067675051
Ti         0.0012053833       13.2374316362        2.4086350835
Ti         5.6695271562        1.8883786258        4.8031345566
Ti        11.3498624197       -0.0002622464       -0.0015289340
Ti         3.7787022627       -0.0003411573       -0.0027970963
Ti        13.2375562863        1.8884585683        4.8092136353
Ti        13.2374078370        0.0013558915        7.2074065844
Ti         3.7765920212        1.8882880895        2.4089589180
Ti         1.8885680201        5.6692611072        4.8119292096
Ti         0.0024548835       11.3469551353        0.0013127175
Ti         0.0011534069        5.6691970956        2.4012529793
Ti         1.8883480015       11.3499309875        7.2077837007
Ti         0.0006514237        7.5702620887        0.0056001524
Ti         1.8882973157        9.4623253985        4.8088411021
Ti         7.5695685178        1.8884172729        2.4109045904
Ti         9.4624829896        0.0012251186        7.2106492104
Ti         1.8883473828        7.5694116779        7.2037467853
Ti         0.0012409454        9.4624717627        2.4041257180
Ti         9.4621904508        1.8884685959        4.8062493318
Ti         7.5685795932        0.0028051148       -0.0057177044
Ti         3.7763311853        3.7788751517       -0.0002407055
Ti        13.2370562790       13.2375214671        4.8075687935
Ti        11.3501026816        5.6693046417        2.4021116595
Ti         5.6692663463       11.3500556837        7.2125644779
Ti        13.2374634978        3.7766536532        7.2047929108
Ti         3.7768227117       13.2374757586        2.4099935824
Ti         5.6691220904        5.6693169202        4.8075259038
Ti        11.3481207377       11.3513549891        0.0000407785
Ti        11.3498412753       13.2375177787        2.4087257434
Ti         5.6692729803        3.7765530130        7.2112776923
Ti         3.7768841202       11.3510018258       -0.0014233983
Ti        13.2372724142        5.6693189226        4.8135775253
Ti         5.6692449299       13.2374756488        4.8014911511
Ti        11.3489154652        3.7787760577        0.0012186528
Ti        13.2374499651       11.3499892769        7.2055327467
Ti         3.7765555465        5.6692890982        2.4034044335
Ti         3.7776958777        7.5678216059        0.0027970472
Ti        13.2375921838        9.4621702641        4.8104737140
Ti         7.5695657572        5.6691801063        2.4067116226
Ti         9.4624779680       11.3500920406        7.2095262135
Ti        13.2374440963        7.5693497786        7.2022446106
Ti         3.7765887621        9.4624554383        2.4072063576
Ti         9.4624935341        5.6692175136        4.8106557688
Ti         7.5698440387       11.3483094948       -0.0042753918
Ti        11.3500246125        9.4624469950        2.4061101740
Ti         5.6692356299        7.5695463560        7.2087050713
Ti         5.6694570582        9.4622958687        4.8044183993
Ti        11.3504625975        7.5674294731        0.0041194567
Ti         9.4624357932        3.7764947958        7.2082845074
Ti         7.5695415725       13.2374488140        2.4131360445
Ti         7.5699927342        3.7755598173       -0.0029185623
Ti         9.4624373065       13.2373883028        4.8046075256
Ti         7.5685599764        7.5706549116       -0.0000136519
Ti         9.4621738597        9.4624439072        4.8075628829
Ti         7.5694946874        9.4624611347        2.4094535109
Ti         9.4624378477        7.5695298533        7.2051540874
O         0.0008957220        0.0009186392        1.9872181983
O         1.8844078608        1.8874283235        6.8004479829
O         0.0016576429        1.8843936206        4.3951987456
O         1.8876739857        0.0000497148        9.2055594870
O         1.8844651857        0.0016456746        5.2193948226
O         0.0006991524        1.8881088806        0.4113824555
O         1.8875762066        1.8841372295        2.8145983086
O         0.0018768917       -0.0001167109        7.6276220318
O         0.0004123474        3.7757844438        1.9852783801
O         1.8842091014       13.2368892283        6.8004688811
O        11.3512251123        1.8845194572        4.3956104650
O         5.6724558272        0.0006890136        9.2044816066
O         1.8846352631        3.7757577273        5.2223231062
O         0.0005329008       13.2368093403        0.4087980768
O         5.6719994927        1.8844094712        2.8139932935
O        11.3513745927        0.0010183005        7.6272327758
O         3.7750881024        0.0010623377        7.6298786584
O        13.2367084306        1.8841320246        2.8146738568
O        13.2365585536        0.0000677053        9.2043633082
O         3.7757178764        1.8846053386        4.3930274514
O         1.8844586039        5.6721988167        6.8009418821
O         0.0003126599       11.3520776712        1.9874361530
O         0.0004661452        5.6721752353        0.4093112714
O         1.8844520563       11.3511704133        5.2195363531
O         0.0008085739        7.5666313065        1.9889850568
O         1.8844619000        9.4627916868        6.7977468628
O         7.5668441730        1.8845776996        4.3960857072
O         9.4625812169        0.0006737507        9.2021866983
O         1.8845905945        7.5668395011        5.2187659433
O         0.0003355531        9.4621845310        0.4141999770
O         9.4629859708        1.8844181727        2.8173724357
O         7.5670918107        0.0001054297        7.6259947923
O         3.7688034293        0.0019585925        1.9882839163
O        13.2379674745        1.8875613866        6.8003399496
O         0.0016733772        5.6557738505        4.3952941909
O         1.8878214670       11.3551348974        9.2043762116
O        13.2379289145        0.0016760462        5.2197070230
O         3.7684370116        1.8875784003        0.4091836068
O         1.8874114273        5.6556802108        2.8147889837
O         0.0013384636       11.3548028360        7.6273569859
O        11.3546877229        1.8876084513        0.4094518831
O         5.6556765797        0.0016524135        5.2198505980
O         5.6556737974        1.8875675777        6.8002411348
O        11.3540643947        0.0019434933        1.9877276318
O         1.8877101861        3.7686748804        9.2044235525
O         0.0016641746       13.2378557402        4.3958208499
O         0.0014415229        3.7695537626        7.6265652790
O         1.8873742097       13.2378653274        2.8145356872
O         3.7696812051        3.7750340225        1.9860717012
O        13.2381012465       13.2367866274        6.8004108855
O        11.3511293022        5.6558689366        4.3952085184
O         5.6722503057       11.3544141730        9.2053212393
O        13.2378327348        3.7757472826        5.2223338891
O         3.7681995293       13.2366894081        0.4110189475
O         5.6722138726        5.6561154788        2.8139081716
O        11.3518100822       11.3536350115        7.6271192607
O        11.3550053283       13.2367517490        0.4113175915
O         5.6561082142        3.7757742190        5.2221181913
O         3.7755270656       11.3536131528        7.6294489690
O        13.2369442111        5.6556225610        2.8148862228
O         5.6555339166       13.2367878479        6.8001753931
O        11.3542544825        3.7750490254        1.9855147633
O        13.2367556124       11.3550224905        9.2055006758
O         3.7757874120        5.6561396230        4.3927332543
O         5.6562138000        5.6720819476        6.8011298599
O        11.3545315297       11.3509917064        1.9880266668
O        13.2367450837        3.7686197933        9.2052885072
O         3.7758022284       13.2378384655        4.3925544921
O        11.3543251869        5.6721492366        0.4110422194
O         5.6558019773       11.3511249864        5.2196661290
O         3.7756878679        3.7689551518        7.6286808062
O        13.2369313764       13.2377867992        2.8146219315
O        13.2379064400       11.3511810545        5.2193518219
O         3.7691367299        5.6722867913        0.4107506367
O         5.6723247707       13.2378459894        2.8140653404
O        11.3515534978        3.7687667217        7.6263185383
O         3.7693381021       11.3510657014        1.9885827216
O        13.2379438038        5.6720981841        6.8009351801
O        11.3511502700       13.2378261891        4.3952351480
O         5.6720408881        3.7689882936        9.2057017440
O         3.7692572942        7.5673654958        1.9896707643
O        13.2378880484        9.4628797359        6.7976758075
O         7.5668406397        5.6562867698        4.3964872934
O         9.4624017379       11.3542517817        9.2013253643
O        13.2378588291        7.5667892966        5.2188394477
O         3.7688890908        9.4627375982        0.4120281146
O         9.4627331248        5.6560227901        2.8172681614
O         7.5667882508       11.3544796238        7.6257903106
O        11.3547139365        9.4627990305        0.4121088340
O         5.6562404516        7.5668426650        5.2186742208
O         5.6560340722        9.4628768880        6.7977398723
O        11.3538411416        7.5674454748        1.9890466047
O         9.4627311745        3.7690291090        9.2017435873
O         7.5668042005       13.2378578918        4.3963003917
O         7.5667780549        3.7699230341        7.6252732887
O         9.4626887948       13.2377845752        2.8174920001
O         7.5830626468        0.0012626460        1.9883566234
O         9.4693575922        1.8874130681        6.8005610787
O         0.0016722907        9.4693307177        4.3954690771
O         1.8876634722        7.5830665764        9.2048763495
O         9.4692564096        0.0016301856        5.2194287297
O         7.5829252973        1.8876762158        0.4114499040
O         1.8875931765        9.4694066890        2.8144062002
O         0.0017545761        7.5825595880        7.6266521875
O         7.5822637694        3.7759396313        1.9861976816
O         9.4694687605       13.2369013350        6.8005484726
O        11.3512027366        9.4692451790        4.3958769631
O         5.6720936397        7.5826884945        9.2046759495
O         9.4689804956        3.7757298092        5.2219687361
O         7.5829946334       13.2368445536        0.4097990828
O         5.6719652764        9.4690376126        2.8137832863
O        11.3511394542        7.5833142057        7.6264622762
O         3.7754176898        7.5829412554        7.6287814436
O        13.2367282216        9.4694528964        2.8144051176
O        13.2367803014        7.5833944263        9.2040464895
O         3.7757165019        9.4690200524        4.3932007890
O         9.4690657939        5.6721600643        6.8012740455
O         7.5825851674       11.3516291231        1.9885240738
O         7.5824366804        5.6721350170        0.4091478083
O         9.4692414806       11.3511823366        5.2194073940
O         7.5826037220        7.5665834110        1.9898091115
O         9.4691937077        9.4628419210        6.7980309946
O         7.5668435763        9.4689797064        4.3963662218
O         9.4627375250        7.5829087780        9.2023729782
O         9.4689890307        7.5668729265        5.2184331498
O         7.5826649074        9.4626162087        0.4139894757
O         9.4629715313        9.4690415959        2.8170072729
O         7.5671381087        7.5819775229        7.6252418219
     192
 i =        8, E =     -5779.5107457381
Ti        -0.0001548844        0.0062985429       -0.0002737550
Ti         1.8882496386        1.8888413878        4.8075309587
Ti         0.0014156053        1.8888093472        2.4068803107
Ti         1.8884998775        0.0014345189        7.2069299919
Ti         0.0027634821        3.7761494138        0.0026512315
Ti         1.8890155730       13.2369450191        4.8060564148
Ti        11.3501194045        1.8884094083        2.4087901606
Ti         5.6694911510        0.0014206242        7.2132312058
Ti         1.8884522194        3.7767539161        7.2058194594
Ti         0.0014103759       13.2371534566        2.4106157562
Ti         5.6697184268        1.8884167358        4.8032288310
Ti        11.3496096345       -0.0007941674       -0.0014235188
Ti         3.7801854843       -0.0008886324       -0.0025344767
Ti        13.2372793165        1.8885954142        4.8090755552
Ti        13.2369625657        0.0015465730        7.2060115055
Ti         3.7765186596        1.8884380322        2.4101074428
Ti         1.8886438075        5.6693842900        4.8118514142
Ti         0.0035264037       11.3447875366        0.0010763295
Ti         0.0013587764        5.6692044426        2.4023752845
Ti         1.8886554627       11.3500363643        7.2066456036
Ti         0.0007088954        7.5701922680        0.0056820608
Ti         1.8883428273        9.4620059120        4.8090245751
Ti         7.5693920725        1.8885856656        2.4115879322
Ti         9.4622003750        0.0014487070        7.2096929387
Ti         1.8884427717        7.5692719065        7.2030288056
Ti         0.0014395284        9.4618756895        2.4050118673
Ti         9.4618617173        1.8885666259        4.8061023533
Ti         7.5680411138        0.0037125910       -0.0057291583
Ti         3.7763804465        3.7800383203       -0.0003278015
Ti        13.2365314523       13.2372873715        4.8076052693
Ti        11.3501823970        5.6694767205        2.4027363886
Ti         5.6693457718       11.3501579049        7.2117462370
Ti        13.2371673608        3.7766334553        7.2038570859
Ti         3.7769112609       13.2371212039        2.4108953321
Ti         5.6692174463        5.6694471010        4.8075440460
Ti        11.3469355706       11.3519801361        0.0001481201
Ti        11.3498782576       13.2372532774        2.4096743138
Ti         5.6693256791        3.7764996191        7.2104411076
Ti         3.7773545597       11.3513641466       -0.0013564142
Ti        13.2369392004        5.6694508339        4.8133457034
Ti         5.6694227443       13.2372163759        4.8017610121
Ti        11.3484045542        3.7799674822        0.0011183047
Ti        13.2370585791       11.3501237977        7.2042113083
Ti         3.7765981526        5.6694769217        2.4040429648
Ti         3.7781467151        7.5671844819        0.0029348313
Ti        13.2373426785        9.4617783334        4.8105203624
Ti         7.5694409061        5.6691565960        2.4073292713
Ti         9.4620306046       11.3501551387        7.2088763852
Ti        13.2371730347        7.5691892010        7.2016172883
Ti         3.7765249451        9.4622753107        2.4078836992
Ti         9.4622989426        5.6692967805        4.8104337911
Ti         7.5696822808       11.3476079436       -0.0044720309
Ti        11.3502061413        9.4622874709        2.4069535320
Ti         5.6693622530        7.5693992556        7.2081726703
Ti         5.6695816620        9.4620489925        4.8046849484
Ti        11.3506786888        7.5664308286        0.0042018080
Ti         9.4620821504        3.7765016131        7.2076737074
Ti         7.5694331569       13.2371748955        2.4137424053
Ti         7.5699013291        3.7753650888       -0.0030346843
Ti         9.4621389473       13.2370963857        4.8046230104
Ti         7.5680482187        7.5707862688        0.0000270482
Ti         9.4618558086        9.4622239059        4.8075753140
Ti         7.5693262758        9.4620959329        2.4098514081
Ti         9.4622328056        7.5694222035        7.2047193992
O         0.0005657420        0.0007194065        1.9865604629
O         1.8838397318        1.8869185183        6.8003037597
O         0.0016401619        1.8844387557        4.3941855158
O         1.8871076400        0.0000285092        9.2095055435
O         1.8844333131        0.0015973855        5.2206568601
O         0.0006693307        1.8878568088        0.4083096262
O         1.8871916249        1.8842021117        2.8148917666
O         0.0019283029        0.0010371454        7.6281798431
O         0.0007786896        3.7756951488        1.9850588855
O         1.8844231346       13.2370388806        6.8003538211
O        11.3513257766        1.8844728790        4.3941975485
O         5.6723020316        0.0006787800        9.2070206176
O         1.8845747522        3.7756009119        5.2232253362
O         0.0004289940       13.2369897228        0.4039534467
O         5.6716060900        1.8842037687        2.8143135195
O        11.3514635483        0.0005505604        7.6275912438
O         3.7747258771        0.0005667778        7.6304464588
O        13.2369390127        1.8838092219        2.8147584019
O        13.2368165139        0.0001887017        9.2080067189
O         3.7755210092        1.8846101351        4.3917970032
O         1.8846654353        5.6720047183        6.8006341641
O         0.0008253073       11.3523324427        1.9868284686
O         0.0004648828        5.6718829335        0.4065172273
O         1.8844709889       11.3512597348        5.2207157778
O         0.0006531221        7.5663921593        1.9892641755
O         1.8840055502        9.4632641123        6.7978551620
O         7.5668410811        1.8845888539        4.3951588401
O         9.4630793845        0.0006563171        9.2055846936
O         1.8845909402        7.5668871704        5.2200024250
O         0.0004664515        9.4623928925        0.4111947769
O         9.4633623041        1.8844604290        2.8173104108
O         7.5672649508        0.0008094053        7.6258117855
O         3.7699870779        0.0019683398        1.9882457184
O        13.2383368540        1.8870505282        6.8002060162
O         0.0016496616        5.6558511062        4.3941876211
O         1.8873589567       11.3548692827        9.2074614949
O        13.2378363443        0.0016220474        5.2208002953
O         3.7682499767        1.8869479647        0.4060676389
O         1.8871682206        5.6554285235        2.8149872976
O         0.0012776609       11.3533186389        7.6277913072
O        11.3546575377        1.8870445842        0.4060583264
O         5.6557761097        0.0016302913        5.2207510867
O         5.6558940012        1.8872215037        6.8000325223
O        11.3536496581        0.0019661831        1.9874035513
O         1.8874179805        3.7689494319        9.2068298414
O         0.0016227409       13.2378486978        4.3944613439
O         0.0014415232        3.7697168600        7.6267007176
O         1.8868724499       13.2377285573        2.8147119215
O         3.7698761051        3.7747565427        1.9859525108
O        13.2376403415       13.2368789563        6.8003664702
O        11.3511954392        5.6559879648        4.3943427126
O         5.6719655206       11.3542927172        9.2078032293
O        13.2378143373        3.7755678128        5.2234120260
O         3.7685889728       13.2368578604        0.4083027696
O         5.6720028500        5.6563629886        2.8142170579
O        11.3519509967       11.3538157000        7.6275702970
O        11.3545371692       13.2368188316        0.4082905409
O         5.6562785379        3.7756202709        5.2229328346
O         3.7753590203       11.3537080787        7.6298082477
O        13.2369988587        5.6556644935        2.8149876858
O         5.6550339368       13.2369275472        6.8001166934
O        11.3535660599        3.7747471356        1.9852029633
O        13.2371258452       11.3551049657        9.2094263078
O         3.7756455872        5.6563091630        4.3920921476
O         5.6560561134        5.6718307477        6.8008870671
O        11.3534388923       11.3510350115        1.9877601651
O        13.2369012753        3.7685721363        9.2081504434
O         3.7756409309       13.2378066340        4.3916711811
O        11.3541952778        5.6720036275        0.4086966064
O         5.6559081783       11.3512084041        5.2207314526
O         3.7755507876        3.7700851817        7.6287313127
O        13.2372166341       13.2380679468        2.8146324007
O        13.2378302844       11.3512914435        5.2207238902
O         3.7693736538        5.6722092667        0.4086403526
O         5.6720638718       13.2379779160        2.8143597533
O        11.3516204023        3.7699475871        7.6263349403
O         3.7698557463       11.3511229831        1.9885692939
O        13.2375912604        5.6718644547        6.8006627768
O        11.3512345374       13.2378618477        4.3941660025
O         5.6716123792        3.7690646126        9.2079061919
O         3.7698591847        7.5676473555        1.9900750026
O        13.2382199783        9.4634014700        6.7978245191
O         7.5668802931        5.6564690480        4.3953749479
O         9.4626880749       11.3541361178        9.2041733581
O        13.2377979985        7.5668226380        5.2199471619
O         3.7689405138        9.4633484130        0.4090351367
O         9.4630420085        5.6559211523        2.8171695042
O         7.5666705047       11.3535961118        7.6254957964
O        11.3546916507        9.4634879455        0.4084999674
O         5.6564146822        7.5668867873        5.2195183659
O         5.6563471244        9.4631796711        6.7978534188
O        11.3537952993        7.5678268849        1.9891994373
O         9.4630939501        3.7690808136        9.2042986043
O         7.5668270768       13.2377909664        4.3948980959
O         7.5666644328        3.7697029808        7.6249545037
O         9.4631124332       13.2376732933        2.8173796472
O         7.5824031072        0.0012559706        1.9883508737
O         9.4691993914        1.8870919375        6.8002278742
O         0.0016491672        9.4693286008        4.3944251678
O         1.8872423675        7.5830048446        9.2073204737
O         9.4692856057        0.0016032156        5.2206786790
O         7.5828971040        1.8873934568        0.4092074650
O         1.8871623188        9.4697804070        2.8147461860
O         0.0017598551        7.5823356974        7.6267606579
O         7.5821204786        3.7758148867        1.9862197677
O         9.4700657827       13.2369760549        6.8003751635
O        11.3513000666        9.4692211072        4.3944216593
O         5.6717871123        7.5825060032        9.2066922066
O         9.4689493509        3.7755865226        5.2228738080
O         7.5831580814       13.2369933170        0.4070038174
O         5.6716475184        9.4689864532        2.8141858686
O        11.3512164702        7.5823021144        7.6264681412
O         3.7752333408        7.5821191833        7.6287957554
O        13.2369075953        9.4695548994        2.8146771276
O        13.2369002667        7.5832604837        9.2065655129
O         3.7755236128        9.4689783076        4.3919925380
O         9.4694033511        5.6719958937        6.8008996320
O         7.5823262913       11.3516566485        1.9884841067
O         7.5822022870        5.6718685025        0.4069138461
O         9.4692119789       11.3512528172        5.2205530740
O         7.5821266151        7.5663970134        1.9901922713
O         9.4689741002        9.4631616282        6.7979603453
O         7.5668559005        9.4689805544        4.3954363973
O         9.4632377470        7.5829320370        9.2051858207
O         9.4689457185        7.5669217415        5.2197013738
O         7.5824369597        9.4628971434        0.4116309286
O         9.4633811253        9.4693268144        2.8169869767
O         7.5672985645        7.5820756219        7.6249495489
     192
 i =        9, E =     -5779.5135423792
Ti        -0.0006530065        0.0166181997       -0.0011053119
Ti         1.8887308398        1.8903803173        4.8074509922
Ti         0.0021001678        1.8898566151        2.4116843907
Ti         1.8890819597        0.0026440165        7.2000251134
Ti         0.0040983143        3.7809671257        0.0012072283
Ti         1.8908624395       13.2357189006        4.8066053013
Ti        11.3491966629        1.8889773260        2.4121299644
Ti         5.6701479693        0.0022100171        7.2104125975
Ti         1.8888954326        3.7784363055        7.2038985215
Ti         0.0021976972       13.2365097072        2.4207666715
Ti         5.6704513927        1.8887400875        4.8034492071
Ti        11.3441132450        0.0002321768       -0.0003681058
Ti         3.7879439323       -0.0006237947       -0.0007201516
Ti        13.2361905233        1.8899275775        4.8085715907
Ti        13.2356679797        0.0031958653        7.1998203183
Ti         3.7774739712        1.8890829742        2.4129829019
Ti         1.8889758623        5.6698692387        4.8114218038
Ti         0.0074665552       11.3335841922       -0.0005302440
Ti         0.0020121406        5.6691766272        2.4053404992
Ti         1.8895372783       11.3486886696        7.2023678745
Ti         0.0019563433        7.5665212714        0.0043064500
Ti         1.8889346820        9.4603227748        4.8091452911
Ti         7.5688065987        1.8891031956        2.4126675740
Ti         9.4614451366        0.0023703012        7.2066750184
Ti         1.8887919628        7.5681251779        7.2024148821
Ti         0.0022800837        9.4602493636        2.4085447936
Ti         9.4605922894        1.8891244596        4.8060003046
Ti         7.5670167949        0.0047662098       -0.0042814107
Ti         3.7775706660        3.7836096659       -0.0007992983
Ti        13.2342064001       13.2366676070        4.8077650427
Ti        11.3498496764        5.6698869191        2.4044414341
Ti         5.6696300657       11.3497031631        7.2098278404
Ti        13.2362215827        3.7780242334        7.2020358089
Ti         3.7793318543       13.2361935531        2.4137288059
Ti         5.6695415174        5.6698277096        4.8075143638
Ti        11.3399962694       11.3509730280        0.0009408596
Ti        11.3476292626       13.2365951457        2.4132961636
Ti         5.6695668437        3.7770093477        7.2088836132
Ti         3.7823878421       11.3494374677       -0.0006144349
Ti        13.2360047958        5.6697959669        4.8125128045
Ti         5.6705238537       13.2364391409        4.8026325578
Ti        11.3468723241        3.7836394881        0.0004245801
Ti        13.2358451616       11.3489853312        7.1983270465
Ti         3.7771741030        5.6699613840        2.4055096383
Ti         3.7791745277        7.5662356695        0.0026208175
Ti        13.2364583108        9.4597368048        4.8102501360
Ti         7.5690145020        5.6691525705        2.4080909110
Ti         9.4608332609       11.3496418665        7.2068226632
Ti        13.2363063254        7.5677184593        7.2006821472
Ti         3.7774307076        9.4616317465        2.4091976723
Ti         9.4616040008        5.6695324963        4.8100811154
Ti         7.5680014426       11.3465714063       -0.0037791265
Ti        11.3495612229        9.4616995158        2.4095857770
Ti         5.6697990840        7.5688711425        7.2074831389
Ti         5.6700187074        9.4611676388        4.8051419437
Ti        11.3501154551        7.5638076361        0.0035263147
Ti         9.4610382704        3.7771342193        7.2063345493
Ti         7.5688490761       13.2364774121        2.4139381729
Ti         7.5691000861        3.7761585147       -0.0028610014
Ti         9.4604861415       13.2362860544        4.8051393438
Ti         7.5670402376        7.5701625666        0.0002300958
Ti         9.4605809174        9.4613537134        4.8076305410
Ti         7.5685754059        9.4609805064        2.4102674096
Ti         9.4615193245        7.5688608829        7.2041150873
O         0.0000906519       -0.0011590124        1.9842868576
O         1.8830115004        1.8863002879        6.7997262206
O         0.0015736035        1.8837227280        4.3926702400
O         1.8862997196       -0.0037498063        9.2184822312
O         1.8838939875        0.0014205456        5.2223043374
O         0.0006355900        1.8895963532        0.4021160350
O         1.8864061220        1.8828758447        2.8157934944
O         0.0018236574        0.0015198514        7.6292618336
O         0.0013155954        3.7740915055        1.9850895837
O         1.8830223697       13.2370215670        6.8003666638
O        11.3517517273        1.8839481520        4.3911590477
O         5.6731318459        0.0004079060        9.2104540730
O         1.8842673206        3.7751532985        5.2256426979
O        -0.0007709197       13.2371879623        0.3917579074
O         5.6709192945        1.8839056804        2.8160772641
O        11.3532297905       -0.0006184317        7.6281801414
O         3.7725246350       -0.0004492240        7.6318409147
O        13.2372586980        1.8823959218        2.8152297480
O        13.2364990296       -0.0034992558        9.2169082805
O         3.7747938774        1.8841401006        4.3889467654
O         1.8844204134        5.6716677245        6.7984281616
O         0.0012476069       11.3547922018        1.9846304203