 DBCSR| CPU Multiplication driver                                           XSMM (U)
 DBCSR| Multrec recursion limit                                              512 (U)
 DBCSR| Multiplication stack size                                           1000 (D)
 DBCSR| Maximum elements for images                                    UNLIMITED (U)
 DBCSR| Multiplicative factor virtual images                                   1 (U)
 DBCSR| Use multiplication densification                                       T (D)
 DBCSR| Multiplication size stacks                                             3 (U)
 DBCSR| Use memory pool for CPU allocation                                     F (U)
 DBCSR| Number of 3D layers                                               SINGLE (U)
 DBCSR| Use MPI memory allocation                                              F (U)
 DBCSR| Use RMA algorithm                                                      F (U)
 DBCSR| Use Communication thread                                               T (U)
 DBCSR| Communication thread load                                             87 (D)
 DBCSR| MPI: My process id                                                     0
 DBCSR| MPI: Number of processes                                             128
 DBCSR| OMP: Current number of threads                                         1
 DBCSR| OMP: Max number of threads                                             1
 DBCSR| Split modifier for TAS multiplication algorithm                  1.0E+00 (U)


  **** **** ******  **  PROGRAM STARTED AT               2025-06-19 09:49:43.965
 ***** ** ***  *** **   PROGRAM STARTED ON                             nid004107
 **    ****   ******    PROGRAM STARTED BY                                cahart
 ***** **    ** ** **   PROGRAM PROCESS ID                                113367
  **** **  *******  **  PROGRAM STARTED IN /mnt/lustre/a2fs-work2/work/e05/e05/c
                                           ahart/postdoc2/work/group/tio2/anatas
                                           e/cell-441/geo-opt/mp-390/hole/from-n
                                           eutral/pbe-u-o/u-2.7

 CP2K| version string:                                       CP2K version 2024.3
 CP2K| source code revision number:                                  git:6712648
 CP2K| cp2kflags: omp libint fftw3 libxc libgrpp elpa parallel scalapack cosma x
 CP2K|            smm plumed2 spglib mkl sirius libvori libbqb libvdwxc hdf5
 CP2K| is freely available from                            https://www.cp2k.org/
 CP2K| Program compiled at                       Thu 12 Sep 2024 10:20:47 AM BST
 CP2K| Program compiled on                                                  ln04
 CP2K| Program compiled for                                                local
 CP2K| Data directory path    /mnt/lustre/a2fs-work1/work/y07/shared/apps/core/c
 CP2K| Input file name                                                 input.inp

 GLOBAL| Force Environment number                                              1
 GLOBAL| Basis set file name                                        BASIS_MOLOPT
 GLOBAL| Potential file name                                      GTH_POTENTIALS
 GLOBAL| MM Potential file name                                     MM_POTENTIAL
 GLOBAL| Coordinate file name                                         system.xyz
 GLOBAL| Method name                                                        CP2K
 GLOBAL| Project name                                                       tio2
 GLOBAL| Run type                                                        GEO_OPT
 GLOBAL| FFT library                                                       FFTW3
 GLOBAL| Diagonalization library                                            ELPA
 GLOBAL| DGEMM library                                                      BLAS
 GLOBAL| Minimum number of eigenvectors for ELPA usage                        16
 GLOBAL| Orthonormality check for eigenvectors                          DISABLED
 GLOBAL| Matrix multiplication library                                     COSMA
 GLOBAL| All-to-all communication in single precision                          F
 GLOBAL| FFTs using library dependent lengths                                  F
 GLOBAL| Grid backend                                                       AUTO
 GLOBAL| Global print level                                               MEDIUM
 GLOBAL| MPI I/O enabled                                                       T
 GLOBAL| Total number of message passing processes                           128
 GLOBAL| Number of threads for this process                                    1
 GLOBAL| This output is from process                                           0
 GLOBAL| Stack size for threads created by OpenMP (OMP_STACKSIZE)        default
 GLOBAL| CPU model name                          AMD EPYC 7742 64-Core Processor
 GLOBAL| CPUID                                                              1002

 MEMORY| system memory details [Kb]
 MEMORY|                        rank 0           min           max       average
 MEMORY| MemTotal            263341976     263341976     263341976     263341976
 MEMORY| MemFree             235901852     235901852     235901852     235901852
 MEMORY| Buffers                     0             0             0             0
 MEMORY| Cached                1590456       1590456       1590456       1590456
 MEMORY| Slab                  5172220       5172204       5172220       5172204
 MEMORY| SReclaimable           113996        113996        113996        113996
 MEMORY| MemLikelyFree       237606304     237606304     237606304     237606304


 *** Fundamental physical constants (SI units) ***

 *** Literature: B. J. Mohr and B. N. Taylor,
 ***             CODATA recommended values of the fundamental physical
 ***             constants: 2006, Web Version 5.1
 ***             http://physics.nist.gov/constants

 Speed of light in vacuum [m/s]                             2.99792458000000E+08
 Magnetic constant or permeability of vacuum [N/A**2]       1.25663706143592E-06
 Electric constant or permittivity of vacuum [F/m]          8.85418781762039E-12
 Planck constant (h) [J*s]                                  6.62606896000000E-34
 Planck constant (h-bar) [J*s]                              1.05457162825177E-34
 Elementary charge [C]                                      1.60217648700000E-19
 Electron mass [kg]                                         9.10938215000000E-31
 Electron g factor [ ]                                     -2.00231930436220E+00
 Proton mass [kg]                                           1.67262163700000E-27
 Fine-structure constant                                    7.29735253760000E-03
 Rydberg constant [1/m]                                     1.09737315685270E+07
 Avogadro constant [1/mol]                                  6.02214179000000E+23
 Boltzmann constant [J/K]                                   1.38065040000000E-23
 Atomic mass unit [kg]                                      1.66053878200000E-27
 Bohr radius [m]                                            5.29177208590000E-11

 *** Conversion factors ***

 [u] -> [a.u.]                                              1.82288848426455E+03
 [Angstrom] -> [Bohr] = [a.u.]                              1.88972613288564E+00
 [a.u.] = [Bohr] -> [Angstrom]                              5.29177208590000E-01
 [a.u.] -> [s]                                              2.41888432650478E-17
 [a.u.] -> [fs]                                             2.41888432650478E-02
 [a.u.] -> [J]                                              4.35974393937059E-18
 [a.u.] -> [N]                                              8.23872205491840E-08
 [a.u.] -> [K]                                              3.15774647902944E+05
 [a.u.] -> [kJ/mol]                                         2.62549961709828E+03
 [a.u.] -> [kcal/mol]                                       6.27509468713739E+02
 [a.u.] -> [Pa]                                             2.94210107994716E+13
 [a.u.] -> [bar]                                            2.94210107994716E+08
 [a.u.] -> [atm]                                            2.90362800883016E+08
 [a.u.] -> [eV]                                             2.72113838565563E+01
 [a.u.] -> [Hz]                                             6.57968392072181E+15
 [a.u.] -> [1/cm] (wave numbers)                            2.19474631370540E+05
 [a.u./Bohr**2] -> [1/cm]                                   5.14048714338585E+03
 

 CELL_TOP| Volume [angstrom^3]:                                      2198.132028
 CELL_TOP| Vector a [angstrom    15.120     0.000     0.000   |a| =    15.120000
 CELL_TOP| Vector b [angstrom     0.000    15.120     0.000   |b| =    15.120000
 CELL_TOP| Vector c [angstrom     0.000     0.000     9.615   |c| =     9.615020
 CELL_TOP| Angle (b,c), alpha [degree]:                                90.000000
 CELL_TOP| Angle (a,c), beta  [degree]:                                90.000000
 CELL_TOP| Angle (a,b), gamma [degree]:                                90.000000
 CELL_TOP| Requested initial symmetry:                       MONOCLINIC_GAMMA_AB
 CELL_TOP| Numerically orthorhombic:                                         YES
 CELL_TOP| Periodicity                                                       XYZ

 *** WARNING in atoms_input.F:123 :: Overwriting coordinates. Active    ***
 *** coordinates read from &COORD section. Active coordinates READ from ***
 *** &COORD section                                                     ***


 GENERATE|  Preliminary Number of Bonds generated:                             0
 GENERATE|  Achieved consistency in connectivity generation.

 CELL| Volume [angstrom^3]:                                          2198.132028
 CELL| Vector a [angstrom]:      15.120     0.000     0.000   |a| =    15.120000
 CELL| Vector b [angstrom]:       0.000    15.120     0.000   |b| =    15.120000
 CELL| Vector c [angstrom]:       0.000     0.000     9.615   |c| =     9.615020
 CELL| Angle (b,c), alpha [degree]:                                    90.000000
 CELL| Angle (a,c), beta  [degree]:                                    90.000000
 CELL| Angle (a,b), gamma [degree]:                                    90.000000
 CELL| Requested initial symmetry:                           MONOCLINIC_GAMMA_AB
 CELL| Numerically orthorhombic:                                             YES
 CELL| Periodicity                                                           XYZ

 CELL_REF| Volume [angstrom^3]:                                      2198.132028
 CELL_REF| Vector a [angstrom    15.120     0.000     0.000   |a| =    15.120000
 CELL_REF| Vector b [angstrom     0.000    15.120     0.000   |b| =    15.120000
 CELL_REF| Vector c [angstrom     0.000     0.000     9.615   |c| =     9.615020
 CELL_REF| Angle (b,c), alpha [degree]:                                90.000000
 CELL_REF| Angle (a,c), beta  [degree]:                                90.000000
 CELL_REF| Angle (a,b), gamma [degree]:                                90.000000
 CELL_REF| Requested initial symmetry:                       MONOCLINIC_GAMMA_AB
 CELL_REF| Numerically orthorhombic:                                         YES
 CELL_REF| Periodicity                                                       XYZ

 *******************************************************************************
 *******************************************************************************
 **                                                                           **
 **     #####                         ##              ##                      **
 **    ##   ##            ##          ##              ##                      **
 **   ##     ##                       ##            ######                    **
 **   ##     ##  ##   ##  ##   #####  ##  ##   ####   ##    #####    #####    **
 **   ##     ##  ##   ##  ##  ##      ## ##   ##      ##   ##   ##  ##   ##   **
 **   ##  ## ##  ##   ##  ##  ##      ####     ###    ##   ######   ######    **
 **    ##  ###   ##   ##  ##  ##      ## ##      ##   ##   ##       ##        **
 **     #######   #####   ##   #####  ##  ##  ####    ##    #####   ##        **
 **           ##                                                    ##        **
 **                                                                           **
 **                                                ... make the atoms dance   **
 **                                                                           **
 **            Copyright (C) by CP2K developers group (2000-2024)             **
 **                      J. Chem. Phys. 152, 194103 (2020)                    **
 **                                                                           **
 *******************************************************************************

 DFT| Spin unrestricted (spin-polarized) Kohn-Sham calculation               UKS
 DFT| Multiplicity                                                             2
 DFT| Number of spin states                                                    2
 DFT| Charge                                                                   1
 DFT| Self-interaction correction (SIC)                                       NO
 DFT| Cutoffs: density                                              1.000000E-10
 DFT|          gradient                                             1.000000E-10
 DFT|          tau                                                  1.000000E-10
 DFT|          cutoff_smoothing_range                               0.000000E+00
 DFT| XC density smoothing                                                  NONE
 DFT| XC derivatives                                                          PW

 DFT+U| Method                                                          MULLIKEN
 DFT+U| Check atomic kind information for details

 FUNCTIONAL| PBE:
 FUNCTIONAL| J.P.Perdew, K.Burke, M.Ernzerhof, Phys. Rev. Letter, vol. 77, n 18,
 FUNCTIONAL|  pp. 3865-3868, (1996) {spin polarized}                            


 QS| Method:                                                                 GPW
 QS| Density plane wave grid type                        NON-SPHERICAL FULLSPACE
 QS| Number of grid levels:                                                    4
 QS| Density cutoff [a.u.]:                                                300.0
 QS| Multi grid cutoff [a.u.]: 1) grid level                               300.0
 QS|                           2) grid level                               100.0
 QS|                           3) grid level                                33.3
 QS|                           4) grid level                                11.1
 QS| Grid level progression factor:                                          3.0
 QS| Relative density cutoff [a.u.]:                                        20.0
 QS| Interaction thresholds: eps_pgf_orb:                                1.0E-06
 QS|                         eps_filter_matrix:                          0.0E+00
 QS|                         eps_core_charge:                            1.0E-14
 QS|                         eps_rho_gspace:                             1.0E-12
 QS|                         eps_rho_rspace:                             1.0E-12
 QS|                         eps_gvg_rspace:                             1.0E-06
 QS|                         eps_ppl:                                    1.0E-02
 QS|                         eps_ppnl:                                   1.0E-08


 ATOMIC KIND INFORMATION

  1. Atomic kind: Ti                                    Number of atoms:      64

     Orbital Basis Set                                    DZVP-MOLOPT-SR-GTH-q12

       Number of orbital shell sets:                                           1
       Number of orbital shells:                                               8
       Number of primitive Cartesian functions:                                6
       Number of Cartesian basis functions:                                   31
       Number of spherical basis functions:                                   26
       Norm type:                                                              2

       Normalised Cartesian orbitals:

                        Set   Shell   Orbital            Exponent    Coefficient

                          1       1    2s                7.884570       0.015554
                                                         3.894698       0.963603
                                                         1.513589      -0.631435
                                                         0.596768      -0.343022
                                                         0.222222      -0.006534
                                                         0.077078       0.007652

                          1       2    3s                7.884570      -0.009340
                                                         3.894698       0.212624
                                                         1.513589      -0.258368
                                                         0.596768      -0.226206
                                                         0.222222       0.039438
                                                         0.077078       0.107179

                          1       3    4s                7.884570       0.276563
                                                         3.894698       0.105452
                                                         1.513589       0.085149
                                                         0.596768       0.882541
                                                         0.222222      -0.696223
                                                         0.077078       0.156638

                          1       4    3px               7.884570      -2.034794
                                                         3.894698       0.782008
                                                         1.513589       1.253903
                                                         0.596768       0.347823
                                                         0.222222       0.016778
                                                         0.077078      -0.000433
                          1       4    3py               7.884570      -2.034794
                                                         3.894698       0.782008
                                                         1.513589       1.253903
                                                         0.596768       0.347823
                                                         0.222222       0.016778
                                                         0.077078      -0.000433
                          1       4    3pz               7.884570      -2.034794
                                                         3.894698       0.782008
                                                         1.513589       1.253903
                                                         0.596768       0.347823
                                                         0.222222       0.016778
                                                         0.077078      -0.000433

                          1       5    4px               7.884570       0.376572
                                                         3.894698      -0.182875
                                                         1.513589      -0.474776
                                                         0.596768      -0.081757
                                                         0.222222       0.064432
                                                         0.077078       0.047279
                          1       5    4py               7.884570       0.376572
                                                         3.894698      -0.182875
                                                         1.513589      -0.474776
                                                         0.596768      -0.081757
                                                         0.222222       0.064432
                                                         0.077078       0.047279
                          1       5    4pz               7.884570       0.376572
                                                         3.894698      -0.182875
                                                         1.513589      -0.474776
                                                         0.596768      -0.081757
                                                         0.222222       0.064432
                                                         0.077078       0.047279

                          1       6    4dx2              7.884570       3.047350
                                                         3.894698       3.289529
                                                         1.513589       1.060616
                                                         0.596768       0.249930
                                                         0.222222       0.038806
                                                         0.077078       0.002319
                          1       6    4dxy              7.884570       5.278165
                                                         3.894698       5.697631
                                                         1.513589       1.837041
                                                         0.596768       0.432892
                                                         0.222222       0.067214
                                                         0.077078       0.004017
                          1       6    4dxz              7.884570       5.278165
                                                         3.894698       5.697631
                                                         1.513589       1.837041
                                                         0.596768       0.432892
                                                         0.222222       0.067214
                                                         0.077078       0.004017
                          1       6    4dy2              7.884570       3.047350
                                                         3.894698       3.289529
                                                         1.513589       1.060616
                                                         0.596768       0.249930
                                                         0.222222       0.038806
                                                         0.077078       0.002319
                          1       6    4dyz              7.884570       5.278165
                                                         3.894698       5.697631
                                                         1.513589       1.837041
                                                         0.596768       0.432892
                                                         0.222222       0.067214
                                                         0.077078       0.004017
                          1       6    4dz2              7.884570       3.047350
                                                         3.894698       3.289529
                                                         1.513589       1.060616
                                                         0.596768       0.249930
                                                         0.222222       0.038806
                                                         0.077078       0.002319

                          1       7    5dx2              7.884570      -2.119015
                                                         3.894698      -1.237751
                                                         1.513589      -0.746777
                                                         0.596768      -0.071514
                                                         0.222222       0.004086
                                                         0.077078       0.017595
                          1       7    5dxy              7.884570      -3.670241
                                                         3.894698      -2.143848
                                                         1.513589      -1.293455
                                                         0.596768      -0.123865
                                                         0.222222       0.007077
                                                         0.077078       0.030475
                          1       7    5dxz              7.884570      -3.670241
                                                         3.894698      -2.143848
                                                         1.513589      -1.293455
                                                         0.596768      -0.123865
                                                         0.222222       0.007077
                                                         0.077078       0.030475
                          1       7    5dy2              7.884570      -2.119015
                                                         3.894698      -1.237751
                                                         1.513589      -0.746777
                                                         0.596768      -0.071514
                                                         0.222222       0.004086
                                                         0.077078       0.017595
                          1       7    5dyz              7.884570      -3.670241
                                                         3.894698      -2.143848
                                                         1.513589      -1.293455
                                                         0.596768      -0.123865
                                                         0.222222       0.007077
                                                         0.077078       0.030475
                          1       7    5dz2              7.884570      -2.119015
                                                         3.894698      -1.237751
                                                         1.513589      -0.746777
                                                         0.596768      -0.071514
                                                         0.222222       0.004086
                                                         0.077078       0.017595

                          1       8    5fx3              7.884570      -0.342058
                                                         3.894698       0.375798
                                                         1.513589      -0.706469
                                                         0.596768      -0.229994
                                                         0.222222      -0.012723
                                                         0.077078       0.003932
                          1       8    5fx2y             7.884570      -0.764866
                                                         3.894698       0.840310
                                                         1.513589      -1.579712
                                                         0.596768      -0.514282
                                                         0.222222      -0.028450
                                                         0.077078       0.008792
                          1       8    5fx2z             7.884570      -0.764866
                                                         3.894698       0.840310
                                                         1.513589      -1.579712
                                                         0.596768      -0.514282
                                                         0.222222      -0.028450
                                                         0.077078       0.008792
                          1       8    5fxy2             7.884570      -0.764866
                                                         3.894698       0.840310
                                                         1.513589      -1.579712
                                                         0.596768      -0.514282
                                                         0.222222      -0.028450
                                                         0.077078       0.008792
                          1       8    5fxyz             7.884570      -1.324787
                                                         3.894698       1.455460
                                                         1.513589      -2.736142
                                                         0.596768      -0.890763
                                                         0.222222      -0.049276
                                                         0.077078       0.015229
                          1       8    5fxz2             7.884570      -0.764866
                                                         3.894698       0.840310
                                                         1.513589      -1.579712
                                                         0.596768      -0.514282
                                                         0.222222      -0.028450
                                                         0.077078       0.008792
                          1       8    5fy3              7.884570      -0.342058
                                                         3.894698       0.375798
                                                         1.513589      -0.706469
                                                         0.596768      -0.229994
                                                         0.222222      -0.012723
                                                         0.077078       0.003932
                          1       8    5fy2z             7.884570      -0.764866
                                                         3.894698       0.840310
                                                         1.513589      -1.579712
                                                         0.596768      -0.514282
                                                         0.222222      -0.028450
                                                         0.077078       0.008792
                          1       8    5fyz2             7.884570      -0.764866
                                                         3.894698       0.840310
                                                         1.513589      -1.579712
                                                         0.596768      -0.514282
                                                         0.222222      -0.028450
                                                         0.077078       0.008792
                          1       8    5fz3              7.884570      -0.342058
                                                         3.894698       0.375798
                                                         1.513589      -0.706469
                                                         0.596768      -0.229994
                                                         0.222222      -0.012723
                                                         0.077078       0.003932

       Atomic covalent radius [Angstrom]:                                  1.320

       Atomic van der Waals radius [Angstrom]:                             1.760

     GTH Potential information for                                   GTH-PBE-q12

       Description:                       Goedecker-Teter-Hutter pseudopotential
                                           Goedecker et al., PRB 54, 1703 (1996)
                                          Hartwigsen et al., PRB 58, 3641 (1998)
                                                      Krack, TCA 114, 145 (2005)

       Gaussian exponent of the core charge distribution:               3.462604
       Electronic configuration (s p d ...):                           4   6   2

       Parameters of the local part of the GTH pseudopotential:

                          rloc        C1          C2          C3          C4
                        0.380000    8.711442   -0.700287

       Parameters of the non-local part of the GTH pseudopotential:

                   l      r(l)      h(i,j,l)

                   0    0.337771    2.575264    3.692971
                                    3.692971   -4.767605
                   1    0.242531   -4.630541    8.870875
                                    8.870875  -10.496161
                   2    0.243317   -9.406653

  2. Atomic kind: O                                     Number of atoms:     128

     Orbital Basis Set                                     DZVP-MOLOPT-SR-GTH-q6

       Number of orbital shell sets:                                           1
       Number of orbital shells:                                               5
       Number of primitive Cartesian functions:                                5
       Number of Cartesian basis functions:                                   14
       Number of spherical basis functions:                                   13
       Norm type:                                                              2

       Normalised Cartesian orbitals:

                        Set   Shell   Orbital            Exponent    Coefficient

                          1       1    2s               10.389228       0.396646
                                                         3.849621       0.208811
                                                         1.388401      -0.301641
                                                         0.496955      -0.274061
                                                         0.162492      -0.033677

                          1       2    3s               10.389228       0.303673
                                                         3.849621       0.240943
                                                         1.388401      -0.313066
                                                         0.496955      -0.043055
                                                         0.162492       0.213991

                          1       3    3px              10.389228      -1.530415
                                                         3.849621      -1.371928
                                                         1.388401      -0.761951
                                                         0.496955      -0.253695
                                                         0.162492      -0.035541
                          1       3    3py              10.389228      -1.530415
                                                         3.849621      -1.371928
                                                         1.388401      -0.761951
                                                         0.496955      -0.253695
                                                         0.162492      -0.035541
                          1       3    3pz              10.389228      -1.530415
                                                         3.849621      -1.371928
                                                         1.388401      -0.761951
                                                         0.496955      -0.253695
                                                         0.162492      -0.035541

                          1       4    4px              10.389228      -0.565392
                                                         3.849621      -0.038231
                                                         1.388401      -0.382373
                                                         0.496955       0.179070
                                                         0.162492       0.122714
                          1       4    4py              10.389228      -0.565392
                                                         3.849621      -0.038231
                                                         1.388401      -0.382373
                                                         0.496955       0.179070
                                                         0.162492       0.122714
                          1       4    4pz              10.389228      -0.565392
                                                         3.849621      -0.038231
                                                         1.388401      -0.382373
                                                         0.496955       0.179070
                                                         0.162492       0.122714

                          1       5    4dx2             10.389228       1.867377
                                                         3.849621       0.670994
                                                         1.388401       1.353441
                                                         0.496955       0.273538
                                                         0.162492       0.006620
                          1       5    4dxy             10.389228       3.234392
                                                         3.849621       1.162195
                                                         1.388401       2.344229
                                                         0.496955       0.473781
                                                         0.162492       0.011466
                          1       5    4dxz             10.389228       3.234392
                                                         3.849621       1.162195
                                                         1.388401       2.344229
                                                         0.496955       0.473781
                                                         0.162492       0.011466
                          1       5    4dy2             10.389228       1.867377
                                                         3.849621       0.670994
                                                         1.388401       1.353441
                                                         0.496955       0.273538
                                                         0.162492       0.006620
                          1       5    4dyz             10.389228       3.234392
                                                         3.849621       1.162195
                                                         1.388401       2.344229
                                                         0.496955       0.473781
                                                         0.162492       0.011466
                          1       5    4dz2             10.389228       1.867377
                                                         3.849621       0.670994
                                                         1.388401       1.353441
                                                         0.496955       0.273538
                                                         0.162492       0.006620

       Atomic covalent radius [Angstrom]:                                  0.730

       Atomic van der Waals radius [Angstrom]:                             1.520

     GTH Potential information for                                    GTH-PBE-q6

       Description:                       Goedecker-Teter-Hutter pseudopotential
                                           Goedecker et al., PRB 54, 1703 (1996)
                                          Hartwigsen et al., PRB 58, 3641 (1998)
                                                      Krack, TCA 114, 145 (2005)

       Gaussian exponent of the core charge distribution:               8.360253
       Electronic configuration (s p d ...):                               2   4

       Parameters of the local part of the GTH pseudopotential:

                          rloc        C1          C2          C3          C4
                        0.244554  -16.667215    2.487311

       Parameters of the non-local part of the GTH pseudopotential:

                   l      r(l)      h(i,j,l)

                   0    0.220956   18.337458
                   1    0.211332

     A DFT+U correction is applied to atoms of this atomic kind:
       Angular quantum momentum number L:                                      1
       U(eff) = (U - J) value in [eV]:                                     2.700


 MOLECULE KIND INFORMATION


 All atoms are their own molecule, skipping detailed information


 TOTAL NUMBERS AND MAXIMUM NUMBERS

  Total number of            - Atomic kinds:                                   2
                             - Atoms:                                        192
                             - Shell sets:                                   192
                             - Shells:                                      1152
                             - Primitive Cartesian functions:               1024
                             - Cartesian basis functions:                   3776
                             - Spherical basis functions:                   3328

  Maximum angular momentum of- Orbital basis functions:                        3
                             - Local part of the GTH pseudopotential:          2
                             - Non-local part of the GTH pseudopotential:      3


 MODULE QUICKSTEP: ATOMIC COORDINATES IN ANGSTROM

   Atom Kind Element         X             Y             Z       Z(eff)     Mass
      1    1 Ti   22      0.000808      0.000800      0.000001  12.0000  47.8670
      2    1 Ti   22      1.888382      1.888385      4.807508  12.0000  47.8670
      3    1 Ti   22      0.000793      1.888369      2.402071  12.0000  47.8670
      4    1 Ti   22      1.888378      0.000789      7.212948  12.0000  47.8670
      5    1 Ti   22      0.000808      3.776021      0.003073  12.0000  47.8670
      6    1 Ti   22      1.888397     13.237828      4.805773  12.0000  47.8670
      7    1 Ti   22     11.350305      1.888375      2.403683  12.0000  47.8670
      8    1 Ti   22      5.669374      0.000838      7.216994  12.0000  47.8670
      9    1 Ti   22      1.888407      3.776033      7.209854  12.0000  47.8670
     10    1 Ti   22      0.000811     13.237798      2.403812  12.0000  47.8670
     11    1 Ti   22      5.669394      1.888488      4.803433  12.0000  47.8670
     12    1 Ti   22     11.350289      0.000785     -0.001619  12.0000  47.8670
     13    1 Ti   22      3.776027      0.000813     -0.003067  12.0000  47.8670
     14    1 Ti   22     13.237826      1.888387      4.809246  12.0000  47.8670
     15    1 Ti   22     13.237807      0.000809      7.211224  12.0000  47.8670
     16    1 Ti   22      3.776038      1.888413      2.405164  12.0000  47.8670
     17    1 Ti   22      1.888482      5.669399      4.811583  12.0000  47.8670
     18    1 Ti   22      0.000784     11.350300      0.001614  12.0000  47.8670
     19    1 Ti   22      0.000837      5.669375      2.398017  12.0000  47.8670
     20    1 Ti   22      1.888381     11.350297      7.211334  12.0000  47.8670
     21    1 Ti   22      0.000835      7.569676      0.005682  12.0000  47.8670
     22    1 Ti   22      1.888436      9.462844      4.808819  12.0000  47.8670
     23    1 Ti   22      7.569668      1.888474      2.407781  12.0000  47.8670
     24    1 Ti   22      9.462833      0.000813      7.214246  12.0000  47.8670
     25    1 Ti   22      1.888471      7.569661      7.207240  12.0000  47.8670
     26    1 Ti   22      0.000814      9.462837      2.400780  12.0000  47.8670
     27    1 Ti   22      9.462843      1.888435      4.806198  12.0000  47.8670
     28    1 Ti   22      7.569669      0.000837     -0.005679  12.0000  47.8670
     29    1 Ti   22      3.776066      3.776076      0.000001  12.0000  47.8670
     30    1 Ti   22     13.237820     13.237825      4.807516  12.0000  47.8670
     31    1 Ti   22     11.350213      5.669390      2.399608  12.0000  47.8670
     32    1 Ti   22      5.669395     11.350200      7.215409  12.0000  47.8670
     33    1 Ti   22     13.237797      3.776033      7.208154  12.0000  47.8670
     34    1 Ti   22      3.776039     13.237793      2.406872  12.0000  47.8670
     35    1 Ti   22      5.669412      5.669420      4.807506  12.0000  47.8670
     36    1 Ti   22     11.350296     11.350300     -0.000001  12.0000  47.8670
     37    1 Ti   22     11.350303     13.237818      2.405421  12.0000  47.8670
     38    1 Ti   22      5.669402      3.776147      7.213979  12.0000  47.8670
     39    1 Ti   22      3.776027     11.350268     -0.001479  12.0000  47.8670
     40    1 Ti   22     13.237787      5.669382      4.813288  12.0000  47.8670
     41    1 Ti   22      5.669391     13.237791      4.801736  12.0000  47.8670
     42    1 Ti   22     11.350258      3.776025      0.001476  12.0000  47.8670
     43    1 Ti   22     13.237825     11.350290      7.209600  12.0000  47.8670
     44    1 Ti   22      3.776145      5.669406      2.401043  12.0000  47.8670
     45    1 Ti   22      3.776137      7.569645      0.002660  12.0000  47.8670
     46    1 Ti   22     13.237821      9.462851      4.810532  12.0000  47.8670
     47    1 Ti   22      7.569646      5.669409      2.403697  12.0000  47.8670
     48    1 Ti   22      9.462837     11.350263      7.212648  12.0000  47.8670
     49    1 Ti   22     13.237784      7.569675      7.205540  12.0000  47.8670
     50    1 Ti   22      3.776078      9.462788      2.403850  12.0000  47.8670
     51    1 Ti   22      9.462727      5.669427      4.810316  12.0000  47.8670
     52    1 Ti   22      7.569659     11.350221     -0.004092  12.0000  47.8670
     53    1 Ti   22     11.350270      9.462830      2.402365  12.0000  47.8670
     54    1 Ti   22      5.669403      7.569639      7.211312  12.0000  47.8670
     55    1 Ti   22      5.669433      9.462737      4.804694  12.0000  47.8670
     56    1 Ti   22     11.350211      7.569658      0.004085  12.0000  47.8670
     57    1 Ti   22      9.462786      3.776076      7.211168  12.0000  47.8670
     58    1 Ti   22      7.569682     13.237783      2.409483  12.0000  47.8670
     59    1 Ti   22      7.569635      3.776137     -0.002662  12.0000  47.8670
     60    1 Ti   22      9.462854     13.237828      4.804490  12.0000  47.8670
     61    1 Ti   22      7.569638      7.569644     -0.000004  12.0000  47.8670
     62    1 Ti   22      9.462821      9.462818      4.807509  12.0000  47.8670
     63    1 Ti   22      7.569651      9.462725      2.406500  12.0000  47.8670
     64    1 Ti   22      9.462722      7.569645      7.208513  12.0000  47.8670
     65    2 O     8      0.000909      0.001585      1.991943   6.0000  15.9994
     66    2 O     8      1.884844      1.887541      6.799825   6.0000  15.9994
     67    2 O     8      0.001575      1.884809      4.396116   6.0000  15.9994
     68    2 O     8      1.887562      0.000901      9.203156   6.0000  15.9994
     69    2 O     8      1.884810      0.001573      5.218905   6.0000  15.9994
     70    2 O     8      0.000902      1.887562      0.411866   6.0000  15.9994
     71    2 O     8      1.887541      1.884845      2.815194   6.0000  15.9994
     72    2 O     8      0.001588      0.000907      7.623076   6.0000  15.9994
     73    2 O     8      0.000937      3.775979      1.989961   6.0000  15.9994
     74    2 O     8      1.884810     13.237001      6.799867   6.0000  15.9994
     75    2 O     8     11.351143      1.884839      4.396130   6.0000  15.9994
     76    2 O     8      5.672140      0.000882      9.204453   6.0000  15.9994
     77    2 O     8      1.884949      3.775946      5.220857   6.0000  15.9994
     78    2 O     8      0.000907     13.236990      0.411815   6.0000  15.9994
     79    2 O     8      5.672120      1.884949      2.813968   6.0000  15.9994
     80    2 O     8     11.351124      0.000900      7.623070   6.0000  15.9994
     81    2 O     8      3.775981      0.000935      7.625055   6.0000  15.9994
     82    2 O     8     13.237002      1.884811      2.815152   6.0000  15.9994
     83    2 O     8     13.236992      0.000906      9.203203   6.0000  15.9994
     84    2 O     8      3.775950      1.884951      4.394160   6.0000  15.9994
     85    2 O     8      1.884944      5.672108      6.801054   6.0000  15.9994
     86    2 O     8      0.000900     11.351125      1.991951   6.0000  15.9994
     87    2 O     8      0.000880      5.672145      0.410567   6.0000  15.9994
     88    2 O     8      1.884841     11.351142      5.218890   6.0000  15.9994
     89    2 O     8      0.000880      7.566953      1.993201   6.0000  15.9994
     90    2 O     8      1.884949      9.462867      6.797983   6.0000  15.9994
     91    2 O     8      7.566981      1.884945      4.397312   6.0000  15.9994
     92    2 O     8      9.462840      0.000936      9.201295   6.0000  15.9994
     93    2 O     8      1.884944      7.566976      5.217712   6.0000  15.9994
     94    2 O     8      0.000937      9.462835      0.413730   6.0000  15.9994
     95    2 O     8      9.462865      1.884951      2.817037   6.0000  15.9994
     96    2 O     8      7.566959      0.000881      7.621823   6.0000  15.9994
     97    2 O     8      3.769760      0.001577      1.992363   6.0000  15.9994
     98    2 O     8     13.237579      1.887561      6.799393   6.0000  15.9994
     99    2 O     8      0.001598      5.655923      4.395666   6.0000  15.9994
    100    2 O     8      1.887540     11.353714      9.203582   6.0000  15.9994
    101    2 O     8     13.237575      0.001587      5.219323   6.0000  15.9994
    102    2 O     8      3.769861      1.887583      0.411469   6.0000  15.9994
    103    2 O     8      1.887713      5.656180      2.815661   6.0000  15.9994
    104    2 O     8      0.001573     11.353745      7.622658   6.0000  15.9994
    105    2 O     8     11.353714      1.887541      0.411435   6.0000  15.9994
    106    2 O     8      5.655916      0.001599      5.219351   6.0000  15.9994
    107    2 O     8      5.656187      1.887711      6.799356   6.0000  15.9994
    108    2 O     8     11.353743      0.001574      1.992360   6.0000  15.9994
    109    2 O     8      1.887583      3.769861      9.203552   6.0000  15.9994
    110    2 O     8      0.001588     13.237575      4.395693   6.0000  15.9994
    111    2 O     8      0.001578      3.769759      7.622655   6.0000  15.9994
    112    2 O     8      1.887562     13.237579      2.815625   6.0000  15.9994
    113    2 O     8      3.770026      3.775982      1.990445   6.0000  15.9994
    114    2 O     8     13.237574     13.236994      6.799444   6.0000  15.9994
    115    2 O     8     11.350973      5.656155      4.395660   6.0000  15.9994
    116    2 O     8      5.672112     11.353615      9.204808   6.0000  15.9994
    117    2 O     8     13.237546      3.775981      5.221308   6.0000  15.9994
    118    2 O     8      3.769760     13.236998      0.411392   6.0000  15.9994
    119    2 O     8      5.672164      5.656651      2.814121   6.0000  15.9994
    120    2 O     8     11.351144     11.353717      7.622642   6.0000  15.9994
    121    2 O     8     11.353747     13.236999      0.411396   6.0000  15.9994
    122    2 O     8      5.656402      3.776113      5.221125   6.0000  15.9994
    123    2 O     8      3.775950     11.353608      7.624606   6.0000  15.9994
    124    2 O     8     13.236980      5.655936      2.815599   6.0000  15.9994
    125    2 O     8      5.655947     13.236983      6.799415   6.0000  15.9994
    126    2 O     8     11.353608      3.775944      1.990413   6.0000  15.9994
    127    2 O     8     13.237001     11.353745      9.203625   6.0000  15.9994
    128    2 O     8      3.776107      5.656406      4.393894   6.0000  15.9994
    129    2 O     8      5.656654      5.672173      6.800903   6.0000  15.9994
    130    2 O     8     11.353717     11.351144      1.992379   6.0000  15.9994
    131    2 O     8     13.236999      3.769757      9.203627   6.0000  15.9994
    132    2 O     8      3.775978     13.237550      4.393709   6.0000  15.9994
    133    2 O     8     11.353615      5.672109      0.410213   6.0000  15.9994
    134    2 O     8      5.656140     11.350974      5.219357   6.0000  15.9994
    135    2 O     8      3.775990      3.770027      7.624577   6.0000  15.9994
    136    2 O     8     13.236991     13.237573      2.815575   6.0000  15.9994
    137    2 O     8     13.237581     11.351123      5.219320   6.0000  15.9994
    138    2 O     8      3.770069      5.672096      0.410180   6.0000  15.9994
    139    2 O     8      5.672149     13.237599      2.814323   6.0000  15.9994
    140    2 O     8     11.351101      3.769855      7.622677   6.0000  15.9994
    141    2 O     8      3.769853     11.351105      1.992345   6.0000  15.9994
    142    2 O     8     13.237602      5.672140      6.800698   6.0000  15.9994
    143    2 O     8     11.351126     13.237581      4.395705   6.0000  15.9994
    144    2 O     8      5.672103      3.770069      9.204843   6.0000  15.9994
    145    2 O     8      3.770065      7.566996      1.993585   6.0000  15.9994
    146    2 O     8     13.237546      9.462838      6.797532   6.0000  15.9994
    147    2 O     8      7.566926      5.656628      4.397157   6.0000  15.9994
    148    2 O     8      9.462865     11.353615      9.201741   6.0000  15.9994
    149    2 O     8     13.237603      7.566950      5.218070   6.0000  15.9994
    150    2 O     8      3.770019      9.462829      0.413250   6.0000  15.9994
    151    2 O     8      9.462701      5.656409      2.817317   6.0000  15.9994
    152    2 O     8      7.566978     11.353617      7.621465   6.0000  15.9994
    153    2 O     8     11.353615      9.462868      0.413279   6.0000  15.9994
    154    2 O     8      5.656617      7.566919      5.217862   6.0000  15.9994
    155    2 O     8      5.656418      9.462700      6.797699   6.0000  15.9994
    156    2 O     8     11.353618      7.566981      1.993553   6.0000  15.9994
    157    2 O     8      9.462825      3.770019      9.201769   6.0000  15.9994
    158    2 O     8      7.566950     13.237604      4.396956   6.0000  15.9994
    159    2 O     8      7.566992      3.770069      7.621433   6.0000  15.9994
    160    2 O     8      9.462838     13.237546      2.817492   6.0000  15.9994
    161    2 O     8      7.582851      0.001595      1.991948   6.0000  15.9994
    162    2 O     8      9.468705      1.887582      6.799773   6.0000  15.9994
    163    2 O     8      0.001576      9.468800      4.396097   6.0000  15.9994
    164    2 O     8      1.887700      7.582621      9.203147   6.0000  15.9994
    165    2 O     8      9.468802      0.001578      5.218922   6.0000  15.9994
    166    2 O     8      7.582624      1.887700      0.411870   6.0000  15.9994
    167    2 O     8      1.887577      9.468704      2.815245   6.0000  15.9994
    168    2 O     8      0.001596      7.582851      7.623069   6.0000  15.9994
    169    2 O     8      7.582381      3.776100      1.990161   6.0000  15.9994
    170    2 O     8      9.468801     13.237001      6.799848   6.0000  15.9994
    171    2 O     8     11.351101      9.468713      4.396080   6.0000  15.9994
    172    2 O     8      5.672154      7.582171      9.204653   6.0000  15.9994
    173    2 O     8      9.468548      3.775982      5.220847   6.0000  15.9994
    174    2 O     8      7.582850     13.236984      0.411807   6.0000  15.9994
    175    2 O     8      5.672091      9.468514      2.813953   6.0000  15.9994
    176    2 O     8     11.350989      7.582637      7.623078   6.0000  15.9994
    177    2 O     8      3.776097      7.582384      7.624853   6.0000  15.9994
    178    2 O     8     13.236998      9.468800      2.815169   6.0000  15.9994
    179    2 O     8     13.236983      7.582849      9.203212   6.0000  15.9994
    180    2 O     8      3.775976      9.468545      4.394170   6.0000  15.9994
    181    2 O     8      9.468513      5.672101      6.801061   6.0000  15.9994
    182    2 O     8      7.582637     11.350990      1.991940   6.0000  15.9994
    183    2 O     8      7.582172      5.672167      0.410367   6.0000  15.9994
    184    2 O     8      9.468713     11.351102      5.218941   6.0000  15.9994
    185    2 O     8      7.582178      7.566938      1.993401   6.0000  15.9994
    186    2 O     8      9.468556      9.462838      6.797992   6.0000  15.9994
    187    2 O     8      7.566977      9.468518      4.397318   6.0000  15.9994
    188    2 O     8      9.462720      7.582396      9.201478   6.0000  15.9994
    189    2 O     8      9.468517      7.567001      5.217702   6.0000  15.9994
    190    2 O     8      7.582394      9.462717      0.413543   6.0000  15.9994
    191    2 O     8      9.462830      9.468556      2.817033   6.0000  15.9994
    192    2 O     8      7.566939      7.582181      7.621622   6.0000  15.9994



 SCF PARAMETERS         Density guess:                                   RESTART
                        --------------------------------------------------------
                        max_scf:                                              40
                        max_scf_history:                                       0
                        max_diis:                                              4
                        --------------------------------------------------------
                        eps_scf:                                        1.00E-06
                        eps_scf_history:                                0.00E+00
                        eps_diis:                                       1.00E-01
                        eps_eigval:                                     1.00E-05
                        --------------------------------------------------------
                        level_shift [a.u.]:                             0.000000
                        --------------------------------------------------------
                        Outer loop SCF in use 
                        No variables optimised in outer loop
                        eps_scf                                         1.00E-06
                        max_scf                                               60
                        No outer loop optimization
                        step_size                                       5.00E-01

 PW_GRID| Information for grid number                                          1
 PW_GRID| Grid distributed over                                   128 processors
 PW_GRID| Real space group dimensions                                   128    1
 PW_GRID| the grid is blocked:                                                NO
 PW_GRID| Cutoff [a.u.]                                                    300.0
 PW_GRID| spherical cutoff:                                                   NO
 PW_GRID|   Bounds   1           -112     112                Points:         225
 PW_GRID|   Bounds   2           -112     112                Points:         225
 PW_GRID|   Bounds   3            -72      71                Points:         144
 PW_GRID| Volume element (a.u.^3)  0.2035E-02     Volume (a.u.^3)     14833.7304
 PW_GRID| Grid span                                                    FULLSPACE
 PW_GRID|   Distribution                         Average         Max         Min
 PW_GRID|   G-Vectors                            56953.1       57150       56925
 PW_GRID|   G-Rays                                 253.1         254         253
 PW_GRID|   Real Space Points                    56953.1       64800       32400

 PW_GRID| Information for grid number                                          2
 PW_GRID| Number of the reference grid                                         1
 PW_GRID| Grid distributed over                                   128 processors
 PW_GRID| Real space group dimensions                                   128    1
 PW_GRID| the grid is blocked:                                                NO
 PW_GRID| Cutoff [a.u.]                                                    100.0
 PW_GRID| spherical cutoff:                                                   NO
 PW_GRID|   Bounds   1            -67      67                Points:         135
 PW_GRID|   Bounds   2            -67      67                Points:         135
 PW_GRID|   Bounds   3            -40      40                Points:          81
 PW_GRID| Volume element (a.u.^3)  0.1005E-01     Volume (a.u.^3)     14833.7304
 PW_GRID| Grid span                                                    FULLSPACE
 PW_GRID|   Distribution                         Average         Max         Min
 PW_GRID|   G-Vectors                            11533.0       12150       10800
 PW_GRID|   G-Rays                                  85.4          90          80
 PW_GRID|   Real Space Points                    11533.0       21870       10935

 PW_GRID| Information for grid number                                          3
 PW_GRID| Number of the reference grid                                         1
 PW_GRID| Grid distributed over                                   128 processors
 PW_GRID| Real space group dimensions                                     8   16
 PW_GRID| the grid is blocked:                                                NO
 PW_GRID| Cutoff [a.u.]                                                     33.3
 PW_GRID| spherical cutoff:                                                   NO
 PW_GRID|   Bounds   1            -37      37                Points:          75
 PW_GRID|   Bounds   2            -37      37                Points:          75
 PW_GRID|   Bounds   3            -24      23                Points:          48
 PW_GRID| Volume element (a.u.^3)  0.5494E-01     Volume (a.u.^3)     14833.7304
 PW_GRID| Grid span                                                    FULLSPACE
 PW_GRID|   Distribution                         Average         Max         Min
 PW_GRID|   G-Vectors                             2109.4        2475        1725
 PW_GRID|   G-Rays                                  28.1          33          23
 PW_GRID|   Real Space Points                     2109.4        2400        1728

 PW_GRID| Information for grid number                                          4
 PW_GRID| Number of the reference grid                                         1
 PW_GRID| Grid distributed over                                   128 processors
 PW_GRID| Real space group dimensions                                     8   16
 PW_GRID| the grid is blocked:                                                NO
 PW_GRID| Cutoff [a.u.]                                                     11.1
 PW_GRID| spherical cutoff:                                                   NO
 PW_GRID|   Bounds   1            -22      22                Points:          45
 PW_GRID|   Bounds   2            -22      22                Points:          45
 PW_GRID|   Bounds   3            -13      13                Points:          27
 PW_GRID| Volume element (a.u.^3)  0.2713         Volume (a.u.^3)     14833.7304
 PW_GRID| Grid span                                                    FULLSPACE
 PW_GRID|   Distribution                         Average         Max         Min
 PW_GRID|   G-Vectors                              427.1         585         270
 PW_GRID|   G-Rays                                   9.5          13           6
 PW_GRID|   Real Space Points                      427.1         486         270

 POISSON| Solver                                                        PERIODIC
 POISSON| Periodicity                                                        XYZ

 RS_GRID| Information for grid number                                          1
 RS_GRID|   Bounds   1           -112     112                Points:         225
 RS_GRID|   Bounds   2           -112     112                Points:         225
 RS_GRID|   Bounds   3            -72      71                Points:         144
 RS_GRID| Real space distribution over                                  8 groups
 RS_GRID| Real space distribution along direction                              1
 RS_GRID| Border size                                                         26
 RS_GRID| Real space distribution over                                 16 groups
 RS_GRID| Real space distribution along direction                              2
 RS_GRID| Border size                                                         26
 RS_GRID|   Distribution                         Average         Max         Min
 RS_GRID|   Planes                                  80.1          81          80
 RS_GRID|   Distribution                         Average         Max         Min
 RS_GRID|   Planes                                  66.1          67          66

 RS_GRID| Information for grid number                                          2
 RS_GRID|   Bounds   1            -67      67                Points:         135
 RS_GRID|   Bounds   2            -67      67                Points:         135
 RS_GRID|   Bounds   3            -40      40                Points:          81
 RS_GRID| Real space distribution over                                  8 groups
 RS_GRID| Real space distribution along direction                              1
 RS_GRID| Border size                                                         24
 RS_GRID| Real space distribution over                                 16 groups
 RS_GRID| Real space distribution along direction                              2
 RS_GRID| Border size                                                         24
 RS_GRID|   Distribution                         Average         Max         Min
 RS_GRID|   Planes                                  64.9          65          64
 RS_GRID|   Distribution                         Average         Max         Min
 RS_GRID|   Planes                                  56.4          57          56

 RS_GRID| Information for grid number                                          3
 RS_GRID|   Bounds   1            -37      37                Points:          75
 RS_GRID|   Bounds   2            -37      37                Points:          75
 RS_GRID|   Bounds   3            -24      23                Points:          48
 RS_GRID| Real space fully replicated
 RS_GRID| Group size                                                           1

 RS_GRID| Information for grid number                                          4
 RS_GRID|   Bounds   1            -22      22                Points:          45
 RS_GRID|   Bounds   2            -22      22                Points:          45
 RS_GRID|   Bounds   3            -13      13                Points:          27
 RS_GRID| Real space fully replicated
 RS_GRID| Group size                                                           1

 BFGS| Use rational function optimization for step estimation:                NO
 BFGS| Use model Hessian for initial guess:                                  YES
 BFGS| Restart Hessian:                                                       NO
 BFGS| Trust radius:                                                       0.472

 *******************************************************************************
 ***                     STARTING GEOMETRY OPTIMIZATION                      ***
 ***                                   BFGS                                  ***
 *******************************************************************************

 Spin 1

 Number of electrons:                                                        768
 Number of occupied orbitals:                                                768
 Number of molecular orbitals:                                               768

 Spin 2

 Number of electrons:                                                        767
 Number of occupied orbitals:                                                767
 Number of molecular orbitals:                                               767

 Number of orbital functions:                                               3328
 Number of independent orbital functions:                                   3328

 Extrapolation method: initial_guess

 *** WARNING in qs_initial_guess.F:306 :: User requested to restart the    ***
 *** wavefunction from the file named: tio2-RESTART.wfn. This file does    ***
 *** not exist. Please check the existence of the file or change properly  ***
 *** the value of the keyword WFN_RESTART_FILE_NAME. Calculation continues ***
 *** using ATOMIC GUESS.                                                   ***


 Atomic guess: The first density matrix is obtained in terms of atomic orbitals
               and electronic configurations assigned to each atomic kind

 Guess for atomic kind: Ti

 Electronic structure
    Total number of core electrons                                         10.00
    Total number of valence electrons                                      12.00
    Total number of electrons                                              22.00
    Multiplicity                                                   not specified
    S   [  2.00  2.00] 2.00  2.00
    P   [  6.00] 6.00
    D      2.00


 *******************************************************************************
                  Iteration          Convergence                     Energy [au]
 *******************************************************************************
                          1         2.59099                     -56.573945749309
                          2        0.737518                     -57.461623245624
                          3        0.123244E-01                 -57.676656834797
                          4        0.338536E-02                 -57.676690535970
                          5        0.252157E-03                 -57.676697146183
                          6        0.162704E-05                 -57.676697160103
                          7        0.846593E-06                 -57.676697160104

 Energy components [Hartree]           Total Energy ::          -57.676697160104
                                        Band Energy ::          -13.440549799540
                                     Kinetic Energy ::           25.008468428381
                                   Potential Energy ::          -82.685165588485
                                      Virial (-V/T) ::            3.306286661467
                                        Core Energy ::          -97.155838374470
                                          XC Energy ::           -6.919409696495
                                     Coulomb Energy ::           46.398550910862
                       Total Pseudopotential Energy ::         -122.259340742080
                       Local Pseudopotential Energy ::         -118.928992669456
                    Nonlocal Pseudopotential Energy ::           -3.330348072625
                                        Confinement ::            0.950339392289

 Orbital energies  State     L     Occupation   Energy[a.u.]          Energy[eV]

                       1     0          2.000      -2.312566          -62.928123
                       2     0          2.000      -0.123060           -3.348633

                       1     1          6.000      -1.385567          -37.703193

                       1     2          2.000      -0.127948           -3.481643


 Total Electron Density at R=0:                                         0.004726

 Guess for atomic kind: O

 Electronic structure
    Total number of core electrons                                          2.00
    Total number of valence electrons                                       6.00
    Total number of electrons                                               8.00
    Multiplicity                                                   not specified
    S   [  2.00] 2.00
    P      4.00


 *******************************************************************************
                  Iteration          Convergence                     Energy [au]
 *******************************************************************************
                          1        0.702811                     -15.577904332270
                          2        0.612408                     -15.588447180504
                          3        0.955344E-02                 -15.655871208406
                          4        0.223754E-02                 -15.655885053552
                          5        0.157183E-02                 -15.655885461027
                          6        0.124953E-02                 -15.655885607150
                          7        0.312011E-06                 -15.655885858066

 Energy components [Hartree]           Total Energy ::          -15.655885858066
                                        Band Energy ::           -2.983128125584
                                     Kinetic Energy ::           11.754765134683
                                   Potential Energy ::          -27.410650992749
                                      Virial (-V/T) ::            2.331875684345
                                        Core Energy ::          -26.153522949072
                                          XC Energy ::           -3.157392363346
                                     Coulomb Energy ::           13.655029454351
                       Total Pseudopotential Energy ::          -37.943026860963
                       Local Pseudopotential Energy ::          -39.220419683052
                    Nonlocal Pseudopotential Energy ::            1.277392822089
                                        Confinement ::            0.347387772086

 Orbital energies  State     L     Occupation   Energy[a.u.]          Energy[eV]

                       1     0          2.000      -0.861522          -23.443215

                       1     1          4.000      -0.315021           -8.572154


 Total Electron Density at R=0:                                         0.000093

 Spin 1
 Re-scaling the density matrix to get the right number of electrons for spin 1
                  # Electrons              Trace(P)               Scaling factor
                          768               768.001                        1.000

 Spin 2
 Re-scaling the density matrix to get the right number of electrons for spin 2
                  # Electrons              Trace(P)               Scaling factor
                          767               768.001                        0.999


 SCF WAVEFUNCTION OPTIMIZATION

  ----------------------------------- OT ---------------------------------------
  Minimizer      : DIIS                : direct inversion
                                         in the iterative subspace
                                         using   7 DIIS vectors
                                         safer DIIS on
  Preconditioner : FULL_SINGLE_INVERSE : inversion of 
                                         H + eS - 2*(Sc)(c^T*H*c+const)(Sc)^T
  Precond_solver : DEFAULT
  stepsize       :    0.08000000                  energy_gap     :    0.08000000
  eps_taylor     :   0.10000E-15                  max_taylor     :             4
  ----------------------------------- OT ---------------------------------------

  Step     Update method      Time    Convergence         Total energy    Change
  ------------------------------------------------------------------------------
     1 OT DIIS     0.80E-01    2.0     0.01005464     -5657.9950249697 -5.66E+03
     2 OT DIIS     0.80E-01    1.5     0.00725816     -5693.0175558821 -3.50E+01
     3 OT DIIS     0.80E-01    1.5     0.00458080     -5725.9952473292 -3.30E+01
     4 OT DIIS     0.80E-01    1.5     0.00364994     -5736.1590319936 -1.02E+01
     5 OT DIIS     0.80E-01    1.5     0.00267051     -5747.6068294198 -1.14E+01
     6 OT DIIS     0.80E-01    1.5     0.00220125     -5754.5216345132 -6.91E+00
     7 OT DIIS     0.80E-01    1.5     0.00184259     -5760.7013478552 -6.18E+00
     8 OT DIIS     0.80E-01    1.5     0.00147561     -5766.6533015341 -5.95E+00
     9 OT DIIS     0.80E-01    1.5     0.00127850     -5770.2643952079 -3.61E+00
    10 OT DIIS     0.80E-01    1.5     0.00099686     -5773.5431484863 -3.28E+00
    11 OT DIIS     0.80E-01    1.5     0.00090979     -5774.3597212019 -8.17E-01
    12 OT DIIS     0.80E-01    1.5     0.00073630     -5776.1767389511 -1.82E+00
    13 OT DIIS     0.80E-01    1.5     0.00060535     -5777.5174515619 -1.34E+00
    14 OT DIIS     0.80E-01    1.5     0.00050140     -5778.4517801157 -9.34E-01
    15 OT DIIS     0.80E-01    1.5     0.00045227     -5778.9351790258 -4.83E-01
    16 OT DIIS     0.80E-01    1.5     0.00038160     -5779.4666459907 -5.31E-01
    17 OT DIIS     0.80E-01    1.5     0.00035488     -5779.6823016726 -2.16E-01
    18 OT DIIS     0.80E-01    1.5     0.00030785     -5780.0115220566 -3.29E-01
    19 OT DIIS     0.80E-01    1.5     0.00026966     -5780.2346080522 -2.23E-01
    20 OT DIIS     0.80E-01    1.5     0.00025604     -5780.3444818985 -1.10E-01
    21 OT DIIS     0.80E-01    1.5     0.00023623     -5780.5270650234 -1.83E-01
    22 OT DIIS     0.80E-01    1.5     0.00021940     -5780.6353217352 -1.08E-01
    23 OT DIIS     0.80E-01    1.5     0.00019655     -5780.8022742235 -1.67E-01
    24 OT DIIS     0.80E-01    1.5     0.00017490     -5780.9067977536 -1.05E-01
    25 OT DIIS     0.80E-01    1.5     0.00017615     -5780.9371587673 -3.04E-02
    26 OT DIIS     0.80E-01    1.5     0.00014525     -5781.0494654882 -1.12E-01
    27 OT DIIS     0.80E-01    1.5     0.00014255     -5781.0852840715 -3.58E-02
    28 OT DIIS     0.80E-01    1.5     0.00013467     -5781.1226406131 -3.74E-02
    29 OT SD       0.80E-01    1.5     0.00013111     -5781.1667097035 -4.41E-02
    30 OT DIIS     0.80E-01    1.5     0.00012656     -5781.1736006224 -6.89E-03
    31 OT DIIS     0.80E-01    1.5     0.00012172     -5781.2195769252 -4.60E-02
    32 OT DIIS     0.80E-01    1.5     0.00010775     -5781.2560696945 -3.65E-02
    33 OT DIIS     0.80E-01    1.5     0.00009721     -5781.2917619220 -3.57E-02
    34 OT DIIS     0.80E-01    1.5     0.00008987     -5781.3242056867 -3.24E-02
    35 OT DIIS     0.80E-01    1.5     0.00008539     -5781.3438259483 -1.96E-02
    36 OT DIIS     0.80E-01    1.5     0.00007997     -5781.3593046406 -1.55E-02
    37 OT DIIS     0.80E-01    1.5     0.00007857     -5781.3730129880 -1.37E-02
    38 OT DIIS     0.80E-01    1.5     0.00007668     -5781.3773500808 -4.34E-03
    39 OT DIIS     0.80E-01    1.5     0.00007397     -5781.3909413591 -1.36E-02
    40 OT DIIS     0.80E-01    1.5     0.00006961     -5781.4125832568 -2.16E-02

  Leaving inner SCF loop after reaching    40 steps.


  Electronic density on regular grids:      -1534.9999999999        0.0000000001
  Core density on regular grids:             1535.9999999995       -0.0000000005
  Total charge density on r-space grids:        0.9999999996
  Total charge density g-space grids:           0.9999999996

  Overlap energy of the core charge distribution:               0.00000000000326
  Self energy of the core charge distribution:             -12156.89556134359555
  Core Hamiltonian energy:                                   3263.25873190779930
  Hartree energy:                                            4027.44305186399379
  Exchange-correlation energy:                               -922.77253663712872

  DFT+U energy:                                                 7.55373095214338

  Total energy:                                             -5781.41258325678427

  outer SCF iter =    1 RMS gradient =   0.70E-04 energy =      -5781.4125832568

  ----------------------------------- OT ---------------------------------------
[...]
      -0.44101483     -0.43336587     -0.43298672     -0.43241496
      -0.43189455     -0.42682976     -0.42515897     -0.42264461
      -0.42192208     -0.42152632     -0.42075435     -0.41934310
      -0.41527476     -0.41510314     -0.41449698     -0.41415569
      -0.41366548     -0.41316610     -0.41287811     -0.41251591
      -0.41139236     -0.41043560     -0.41014786     -0.40824995
      -0.40791224     -0.40759170     -0.40651940     -0.40613780
      -0.40541751     -0.40493638     -0.40481607     -0.40379584
      -0.40299182     -0.40278598     -0.40184811     -0.40166735
      -0.40135917     -0.40057295     -0.40048857     -0.39989520
      -0.39965379     -0.39911029     -0.39857531     -0.39818504
      -0.39767525     -0.39723212     -0.39597130     -0.39545371
      -0.39498984     -0.39448328     -0.39408378     -0.39387439
      -0.39363603     -0.39314600     -0.39294314     -0.39206407
      -0.39195786     -0.39159552     -0.39146998     -0.39105212
      -0.39039057     -0.39036625     -0.39006454     -0.38960928
      -0.38928028     -0.38910320     -0.38836297     -0.38757953
      -0.38741718     -0.38694036     -0.38654165     -0.38598243
      -0.38542592     -0.38477624     -0.38347626     -0.38311525
      -0.38250158     -0.38242123     -0.38183038     -0.38110301
      -0.38066832     -0.38039142     -0.38017828     -0.37978294
      -0.37906626     -0.37849665     -0.37798615     -0.37762925
      -0.37762646     -0.37705630     -0.37618558     -0.37609137
      -0.37587123     -0.37521953     -0.37485824     -0.37416199
      -0.37354070     -0.37319784     -0.37200797     -0.37099502
      -0.37005175     -0.36974873     -0.36907698     -0.36850657
      -0.36822195     -0.36694566     -0.36654753     -0.36561054
      -0.36554417     -0.36521034     -0.36460212     -0.36413506
      -0.36388556     -0.36364545     -0.36330848     -0.36094646
      -0.35962177     -0.35913737     -0.35877037     -0.35866684
      -0.35715183     -0.35440868     -0.35385910     -0.35286676
      -0.34396021     -0.33426205     -0.33170129     -0.32563282
       0.01334766      0.01486309      0.01654123      0.01730855
       0.01849221      0.01954904      0.01977573      0.02049238
       0.02089469      0.02090800      0.02140428      0.02169558
       0.02180978      0.02220616      0.02292271      0.02308437
       0.02327217      0.02376383      0.02416500      0.02444920
       0.02468414      0.02508330      0.02565683      0.02578940
       0.02602757      0.02638498      0.02664201      0.02674532
       0.02750818      0.02781397      0.02840431      0.03029687
       0.03116223      0.03250129      0.03316543      0.03355199
       0.03481707      0.03530855      0.03614484      0.03629873
       0.03751119      0.03858032      0.03944109      0.04077835
       0.04115815      0.04140567      0.04148500      0.04176502
       0.04207637      0.04218906      0.04220915      0.04255679
       0.04306992      0.04341970      0.04362754      0.04401287
       0.04417681      0.04443619      0.04531301      0.04539887
       0.04574713      0.04619886      0.04649488      0.04681423
       0.04725566      0.04742197      0.04790887      0.04831971
       0.04893991      0.04959575      0.04992680      0.04999822
       0.05031074      0.05054428      0.05202674      0.05230106
       0.05242085      0.05257995      0.05288943      0.05307383
       0.05395034      0.05422446      0.05446797      0.05493614
       0.05529580      0.05545648      0.05575513      0.05620934
       0.05626525      0.05652410      0.05689767      0.05716401
       0.05792386      0.05821786      0.05839493      0.05890388
       0.05928001      0.05989496      0.06036908      0.06056720
       0.06107057      0.06130918      0.06145923      0.06174370
       0.06205950      0.06225927      0.06249695      0.06307427
       0.06334437      0.06360013      0.06457655      0.06479748
       0.06547292      0.06578241      0.06628105      0.06702782
       0.06727635      0.06798941      0.07015561      0.07077226
       0.07166824      0.07225750      0.07250475      0.07279710
       0.07398536      0.07432872      0.07566314      0.07646286
       0.07654349      0.07678316      0.07698743      0.07737252
       0.07801479      0.07862787      0.07887698      0.07959640
       0.07971455      0.07984861      0.08004520      0.08088033
       0.08170705      0.08181759      0.08266842      0.08302773
       0.08340069      0.08346917      0.08391411      0.08415467
       0.08470281      0.08510486      0.08607432      0.08626537
       0.08712801      0.08785946      0.08839745      0.08896770
       0.08905478      0.08927299      0.08946979      0.08969856
       0.09013446      0.09040596      0.09042162      0.09083655
       0.09109768      0.09177820      0.09196894      0.09222271
       0.09290440      0.09342687      0.09400356      0.09420617
       0.09442686      0.09534596      0.09558883      0.09566750
       0.09645675      0.09695680      0.09699674      0.09736550
       0.09774497      0.09858015      0.09883976      0.09905856
       0.09929613      0.09954453      0.10033566      0.10077109
       0.10138976      0.10192281      0.10229718      0.10271845
       0.10326426      0.10353921      0.10365572      0.10412815
       0.10435584      0.10466813      0.10539766      0.10610411
       0.10686825      0.10712250      0.10726207      0.10768621
       0.10842616      0.10869005      0.10932008      0.10955235
       0.10958528      0.10984573      0.11041642      0.11059102
       0.11102540      0.11145475      0.11180132      0.11259594
       0.11338073      0.11384008      0.11411007      0.11446500
       0.11507103      0.11584580      0.11594707      0.11658435
       0.11706960      0.11767215      0.11800231      0.11836375
       0.11889670      0.11925189      0.11990878      0.12033505
       0.12081620      0.12146802      0.12166590      0.12209990
       0.12239611      0.12256578      0.12291003      0.12343090
       0.12345521      0.12354996      0.12424075      0.12449925
       0.12483420      0.12524080      0.12562737      0.12652156
       0.12689337      0.12722817      0.12825652      0.12846208
       0.12952815      0.13025619      0.13091053      0.13228780
       0.13328460      0.13384217      0.13456959      0.13471884
       0.13513513      0.13574300      0.13636958      0.13791225
       0.13838174      0.13928163      0.13952655      0.14019005
       0.14071079      0.14108412      0.14190805      0.14255516
       0.14352792      0.14385099      0.14435937      0.14462655
       0.14540405      0.14581498      0.14600066      0.14665063
       0.14695293      0.14725632      0.14734381      0.14786830
       0.14801896      0.14847493      0.14871270      0.14934994
       0.14951824      0.14995142      0.15044420      0.15103401
       0.15159832      0.15224455      0.15250529      0.15281976
       0.15307016      0.15327799      0.15370670      0.15394078
       0.15444771      0.15517813      0.15540846      0.15635696
       0.15665225      0.15720753      0.15771539      0.15800352
       0.15821964      0.15891761      0.15924426      0.15953901
       0.16011436      0.16043928      0.16057899      0.16104815
       0.16123614      0.16189927      0.16212427      0.16256402
       0.16402841      0.16414444      0.16423127      0.16458806
       0.16550782      0.16560153      0.16643046      0.16692801
       0.16779775      0.16871042      0.16970066      0.17029415
       0.17139977      0.17203340      0.17258417      0.17294043
       0.17350960      0.17398984      0.17454994      0.17500797
       0.17518906      0.17551086      0.17588407      0.17609703
       0.17658621      0.17694244      0.17745565      0.17775076
       0.17824262      0.17891767      0.17900981      0.17918664
       0.17949689      0.17997143      0.18051022      0.18119671
       0.18237392      0.18406073      0.18443639      0.18525214
       0.18578456      0.18708737      0.18717111      0.18826367
       0.18850230      0.18913295      0.19030553      0.19182052
       0.19287874      0.19330994      0.19452281      0.19491643
       0.19576459      0.19659344      0.19972774      0.20030524
       0.20141491      0.20235867      0.20329392      0.20659889
       0.20910358      0.22597482      0.26353029
 Fermi Energy [eV] :    7.171024
  
  Lowest Eigenvalues of the unoccupied subspace spin            1
 -----------------------------------------------------
 OT| Eigensolver reached convergence in 63 iterations
       0.26747990
  
  Lowest Eigenvalues of the unoccupied subspace spin            2
 -----------------------------------------------------
 OT| Eigensolver reached convergence in 83 iterations
       0.25340077
  
 HOMO - LUMO gap [eV] :    1.472070
 HOMO - LUMO gap [eV] :   -0.275638

 ENERGY| Total FORCE_EVAL ( QS ) energy [a.u.]:            -5781.389782173681851

 OPT| **************************************************************************
 OPT| Step number                                                             12
 OPT| Optimization method                                                   BFGS
 OPT| Total energy [hartree]                                    -5781.3897821737
 OPT| Effective energy change [hartree]                            -0.1902538799
 OPT| Predicted energy change [hartree]                            -0.5541176922
 OPT| Scaling factor                                                0.8437774883
 OPT| Step size                                                     0.4724315332
 OPT| Trust radius                                                  0.4724315332
 OPT| Decrease in energy                                                      NO
 OPT| Used time [s]                                                       97.761
 OPT|
 OPT| Maximum step size                                             0.4724315332
 OPT| Convergence limit for maximum step size                       0.0030000000
 OPT| Maximum step size is converged                                          NO
 OPT|
 OPT| RMS step size                                                 0.1030573064
 OPT| Convergence limit for RMS step size                           0.0015000000
 OPT| RMS step size is converged                                              NO
 OPT|
 OPT| Maximum gradient                                              0.0950807616
 OPT| Convergence limit for maximum gradient                        0.0004500000
 OPT| Maximum gradient is converged                                           NO
 OPT|
 OPT| RMS gradient                                                  0.0182019914
 OPT| Convergence limit for RMS gradient                            0.0003000000
 OPT| RMS gradient is converged                                               NO
 OPT| **************************************************************************
 OPT| Estimated peak process memory after this step [MiB]                    361

 --------------------------
 OPTIMIZATION STEP:     13
 --------------------------

  Step is scaled; Scaling factor =  0.01994

 Spin 1

 Number of electrons:                                                        768
 Number of occupied orbitals:                                                768
 Number of molecular orbitals:                                               768

 Spin 2

 Number of electrons:                                                        767
 Number of occupied orbitals:                                                767
 Number of molecular orbitals:                                               767

 Number of orbital functions:                                               3328
 Number of independent orbital functions:                                   3328

 Parameters for the always stable predictor-corrector (ASPC) method:

  ASPC order: 3

  B(1) =   3.000000
  B(2) =  -3.428571
  B(3) =   1.928571
  B(4) =  -0.571429
  B(5) =   0.071429

 Parameters for the always stable predictor-corrector (ASPC) method:

  ASPC order: 3

  B(1) =   3.000000
  B(2) =  -3.428571
  B(3) =   1.928571
  B(4) =  -0.571429
  B(5) =   0.071429

 Extrapolation method: ASPC


 SCF WAVEFUNCTION OPTIMIZATION

  ----------------------------------- OT ---------------------------------------
  Minimizer      : DIIS                : direct inversion
                                         in the iterative subspace
                                         using   7 DIIS vectors
                                         safer DIIS on
  Preconditioner : FULL_SINGLE_INVERSE : inversion of 
                                         H + eS - 2*(Sc)(c^T*H*c+const)(Sc)^T
  Precond_solver : DEFAULT
  stepsize       :    0.08000000                  energy_gap     :    0.08000000
  eps_taylor     :   0.10000E-15                  max_taylor     :             4
  ----------------------------------- OT ---------------------------------------

  Step     Update method      Time    Convergence         Total energy    Change
  ------------------------------------------------------------------------------
     1 OT DIIS     0.80E-01    1.7     0.00385109     -5772.0703242330 -5.77E+03
     2 OT DIIS     0.80E-01    1.5     0.00195935     -5776.4312985160 -4.36E+00
     3 OT DIIS     0.80E-01    1.5     0.00130748     -5778.2886733606 -1.86E+00
     4 OT DIIS     0.80E-01    1.5     0.00121688     -5779.5248314583 -1.24E+00
     5 OT DIIS     0.80E-01    1.5     0.00100961     -5780.1571440184 -6.32E-01
     6 OT DIIS     0.80E-01    1.5     0.00069977     -5780.6783101221 -5.21E-01
     7 OT DIIS     0.80E-01    1.5     0.00046825     -5781.0436483728 -3.65E-01
     8 OT DIIS     0.80E-01    1.5     0.00042858     -5781.2685019916 -2.25E-01
     9 OT DIIS     0.80E-01    1.5     0.00031936     -5781.3590185418 -9.05E-02
    10 OT DIIS     0.80E-01    1.5     0.00024316     -5781.4622007530 -1.03E-01
    11 OT DIIS     0.80E-01    1.5     0.00022017     -5781.5074450539 -4.52E-02
    12 OT DIIS     0.80E-01    1.5     0.00015599     -5781.5587904516 -5.13E-02
    13 OT DIIS     0.80E-01    1.5     0.00012632     -5781.5833143854 -2.45E-02
    14 OT DIIS     0.80E-01    1.5     0.00010836     -5781.5986747511 -1.54E-02
    15 OT DIIS     0.80E-01    1.5     0.00008672     -5781.6059521275 -7.28E-03
    16 OT DIIS     0.80E-01    1.5     0.00006991     -5781.6147342741 -8.78E-03
    17 OT DIIS     0.80E-01    1.5     0.00006276     -5781.6176382212 -2.90E-03
    18 OT DIIS     0.80E-01    1.5     0.00004782     -5781.6221806401 -4.54E-03
    19 OT DIIS     0.80E-01    1.5     0.00004334     -5781.6240472289 -1.87E-03
    20 OT DIIS     0.80E-01    1.5     0.00003449     -5781.6258663670 -1.82E-03
    21 OT DIIS     0.80E-01    1.6     0.00003085     -5781.6267567389 -8.90E-04
    22 OT DIIS     0.80E-01    1.5     0.00002468     -5781.6279688026 -1.21E-03
    23 OT DIIS     0.80E-01    1.5     0.00002204     -5781.6286048108 -6.36E-04
    24 OT DIIS     0.80E-01    1.5     0.00001833     -5781.6291563733 -5.52E-04
    25 OT DIIS     0.80E-01    1.5     0.00001647     -5781.6294962259 -3.40E-04
    26 OT DIIS     0.80E-01    1.5     0.00001450     -5781.6297468670 -2.51E-04
    27 OT DIIS     0.80E-01    1.5     0.00001314     -5781.6299702670 -2.23E-04
    28 OT DIIS     0.80E-01    1.5     0.00001199     -5781.6301247573 -1.54E-04
    29 OT DIIS     0.80E-01    1.5     0.00001090     -5781.6302777490 -1.53E-04
    30 OT DIIS     0.80E-01    1.5     0.00000983     -5781.6304222685 -1.45E-04
    31 OT DIIS     0.80E-01    1.5     0.00000916     -5781.6305146799 -9.24E-05
    32 OT DIIS     0.80E-01    1.5     0.00000843     -5781.6306088698 -9.42E-05
    33 OT DIIS     0.80E-01    1.5     0.00000787     -5781.6307005299 -9.17E-05
    34 OT DIIS     0.80E-01    1.5     0.00000716     -5781.6307806010 -8.01E-05
    35 OT DIIS     0.80E-01    1.5     0.00000660     -5781.6308497324 -6.91E-05
    36 OT DIIS     0.80E-01    1.5     0.00000613     -5781.6308990999 -4.94E-05
    37 OT DIIS     0.80E-01    1.5     0.00000565     -5781.6309479723 -4.89E-05
    38 OT DIIS     0.80E-01    1.5     0.00000521     -5781.6309955768 -4.76E-05
    39 OT DIIS     0.80E-01    1.5     0.00000488     -5781.6310278475 -3.23E-05
    40 OT DIIS     0.80E-01    1.5     0.00000453     -5781.6310590541 -3.12E-05

  Leaving inner SCF loop after reaching    40 steps.


  Electronic density on regular grids:      -1534.9999999999        0.0000000001
  Core density on regular grids:             1535.9999999995       -0.0000000005
  Total charge density on r-space grids:        0.9999999996
  Total charge density g-space grids:           0.9999999996

  Overlap energy of the core charge distribution:               0.00000000000590
  Self energy of the core charge distribution:             -12156.89556134359555
  Core Hamiltonian energy:                                   3262.39684087478781
  Hartree energy:                                            4028.04596470045362
  Exchange-correlation energy:                               -922.72721290357276

  DFT+U energy:                                                 7.54890961784669

  Total energy:                                             -5781.63105905407429

  outer SCF iter =    1 RMS gradient =   0.45E-05 energy =      -5781.6310590541

  ----------------------------------- OT ---------------------------------------
  Minimizer      : DIIS                : direct inversion
                                         in the iterative subspace
                                         using   7 DIIS vectors
                                         safer DIIS on
  Preconditioner : FULL_SINGLE_INVERSE : inversion of 
                                         H + eS - 2*(Sc)(c^T*H*c+const)(Sc)^T
  Precond_solver : DEFAULT
  stepsize       :    0.08000000                  energy_gap     :    0.08000000
  eps_taylor     :   0.10000E-15                  max_taylor     :             4
  ----------------------------------- OT ---------------------------------------

  Step     Update method      Time    Convergence         Total energy    Change
  ------------------------------------------------------------------------------
     1 OT DIIS     0.80E-01    3.7     0.00000574     -5781.6310860680 -2.70E-05
     2 OT DIIS     0.80E-01    1.3     0.00000532     -5781.6310988602 -1.28E-05
     3 OT DIIS     0.80E-01    1.3     0.00000481     -5781.6311176455 -1.88E-05
     4 OT DIIS     0.80E-01    1.4     0.00000316     -5781.6311761959 -5.86E-05
     5 OT DIIS     0.80E-01    1.4     0.00000288     -5781.6311886774 -1.25E-05
     6 OT DIIS     0.80E-01    1.4     0.00000260     -5781.6312030821 -1.44E-05
     7 OT DIIS     0.80E-01    1.4     0.00000242     -5781.6312156544 -1.26E-05
     8 OT DIIS     0.80E-01    1.4     0.00000231     -5781.6312268145 -1.12E-05
     9 OT DIIS     0.80E-01    1.4     0.00000223     -5781.6312354714 -8.66E-06
    10 OT DIIS     0.80E-01    1.4     0.00000213     -5781.6312514944 -1.60E-05
    11 OT DIIS     0.80E-01    1.4     0.00000208     -5781.6312621589 -1.07E-05
    12 OT DIIS     0.80E-01    1.4     0.00000201     -5781.6312763669 -1.42E-05
    13 OT DIIS     0.80E-01    1.4     0.00000192     -5781.6312960795 -1.97E-05
    14 OT DIIS     0.80E-01    1.4     0.00000185     -5781.6313135470 -1.75E-05
    15 OT DIIS     0.80E-01    1.4     0.00000174     -5781.6313412225 -2.77E-05
    16 OT DIIS     0.80E-01    1.4     0.00000166     -5781.6313606358 -1.94E-05
    17 OT DIIS     0.80E-01    1.5     0.00000159     -5781.6313790777 -1.84E-05
    18 OT DIIS     0.80E-01    1.4     0.00000149     -5781.6313994156 -2.03E-05
    19 OT DIIS     0.80E-01    1.4     0.00000139     -5781.6314180426 -1.86E-05
    20 OT DIIS     0.80E-01    1.4     0.00000130     -5781.6314334592 -1.54E-05
