     192
 i =        6, E =     -5781.7292916600
Ti         0.0004455110        0.0007308671        0.0000511529
Ti         0.0001240472        0.0002229936       -0.0000734750
Ti         0.0002246926        0.0003035992        0.0026013432
Ti         0.0002438433        0.0002585926       -0.0026753774
Ti         0.0004421470        0.0007530003       -0.0000471030
Ti         0.0001647019       -0.0002392632        0.0000687033
Ti        -0.0001508030        0.0003140179        0.0023010469
Ti         0.0001739104        0.0002790985       -0.0018521221
Ti         0.0002102416        0.0002909288       -0.0019064778
Ti         0.0002796179       -0.0001445571        0.0029664414
Ti         0.0001037522        0.0000526462       -0.0001571274
Ti        -0.0006932596        0.0004217597        0.0001847340
Ti         0.0009383903        0.0004163276        0.0001655963
Ti        -0.0001957189        0.0000926868       -0.0001878539
Ti        -0.0002660366        0.0003232340       -0.0028419829
Ti         0.0002965616        0.0002696473        0.0019334376
Ti         0.0001094511       -0.0000044447        0.0000323307
Ti         0.0005237588       -0.0008716686       -0.0000955453
Ti         0.0002535677        0.0001436779        0.0018655395
Ti         0.0002698692       -0.0001575852       -0.0023591239
Ti         0.0003993633       -0.0004692831       -0.0000161438
Ti         0.0001096682       -0.0001897097        0.0000377962
Ti        -0.0001825073        0.0001930067        0.0016760694
Ti        -0.0003933224        0.0002393035       -0.0021886970
Ti         0.0001645519       -0.0002202692       -0.0016901245
Ti         0.0002236870       -0.0004253193        0.0022142432
Ti        -0.0002498139        0.0001901257       -0.0001498540
Ti        -0.0004426362        0.0004585665        0.0001433072
Ti         0.0006438675        0.0006381733        0.0000534866
Ti        -0.0002427226       -0.0001089721       -0.0000521095
Ti        -0.0001571986        0.0000742000        0.0015263223
Ti         0.0001330445       -0.0001391976       -0.0015606942
Ti        -0.0002563369        0.0002572469       -0.0019462750
Ti         0.0002951006       -0.0002092780        0.0020021527
Ti         0.0000715412        0.0001070963       -0.0000592706
Ti        -0.0007285959       -0.0005631771        0.0000855896
Ti        -0.0002362491       -0.0002083342        0.0023879926
Ti         0.0001013084        0.0001926470       -0.0012633478
Ti         0.0008037784       -0.0004915490        0.0000404802
Ti        -0.0002106246        0.0001326484       -0.0000968194
Ti         0.0000953796       -0.0001039270       -0.0000146834
Ti        -0.0005328684        0.0007906879        0.0000915153
Ti        -0.0002782678       -0.0002089561       -0.0024829567
Ti         0.0002121061        0.0000482966        0.0013149673
Ti         0.0005784398       -0.0003928815        0.0000626283
Ti        -0.0002013374       -0.0003365697       -0.0000885608
Ti        -0.0001030041        0.0001055958        0.0011558028
Ti        -0.0003538072       -0.0001138454       -0.0019209761
Ti        -0.0002228539       -0.0001883358       -0.0018014078
Ti         0.0002736834       -0.0002731328        0.0016057615
Ti        -0.0002067031       -0.0000113487       -0.0000542575
Ti        -0.0003700208       -0.0004784743       -0.0000137356
Ti        -0.0001263219       -0.0003013525        0.0019316992
Ti         0.0001287916       -0.0001429253       -0.0012131456
Ti         0.0000876304       -0.0002813291       -0.0000475173
Ti        -0.0004704058       -0.0005128050        0.0000941771
Ti        -0.0003044517        0.0002628402       -0.0015614676
Ti        -0.0001392706       -0.0001323991        0.0017750208
Ti        -0.0003087829        0.0005426372        0.0000380465
Ti        -0.0002480314       -0.0002380663       -0.0000135411
Ti        -0.0002704882       -0.0003604521        0.0000674509
Ti        -0.0002393135       -0.0001706289       -0.0000401149
Ti        -0.0001604805       -0.0003262933        0.0013994655
Ti        -0.0003077079       -0.0001945147       -0.0013765951
O        -0.0000045958       -0.0001118464       -0.0004388344
O        -0.0000445960       -0.0004977326        0.0001556228
O         0.0000161790        0.0000423873       -0.0009706074
O        -0.0008095664       -0.0000975171        0.0016531003
O         0.0000712958        0.0000005642        0.0010492274
O         0.0000369592       -0.0008002901       -0.0017296188
O        -0.0004683122        0.0000626626       -0.0001156190
O         0.0000002898        0.0000781027        0.0004019822
O         0.0000153282       -0.0003381853       -0.0001859952
O        -0.0000165600       -0.0000159824        0.0001108582
O         0.0003014656        0.0000184228       -0.0008562270
O        -0.0002615684       -0.0000796825        0.0013017989
O         0.0000532418       -0.0002162338        0.0008369103
O         0.0000135848        0.0000743236       -0.0018090207
O        -0.0000989690        0.0000724179       -0.0000075928
O         0.0004057121       -0.0000083438        0.0002325401
O        -0.0003295518       -0.0000134442        0.0001794484
O         0.0000404206        0.0000757781       -0.0000720784
O         0.0001421869       -0.0001133025        0.0017270222
O        -0.0002389918        0.0000190090       -0.0007661752
O         0.0000025031       -0.0000743961        0.0000398593
O         0.0000200332        0.0003820137       -0.0002776786
O         0.0000094626       -0.0001395121       -0.0013377756
O         0.0000528422        0.0003212467        0.0009572701
O        -0.0000131157        0.0001125050       -0.0000306035
O        -0.0000397537        0.0003350039        0.0001052646
O         0.0000804049        0.0000410453       -0.0006775500
O         0.0006465550       -0.0000729798        0.0014881042
O         0.0000601000        0.0001191869        0.0007495688
O         0.0000192318        0.0007430090       -0.0016058827
O         0.0003271780        0.0000610981       -0.0000663336
O         0.0001640994        0.0000653155       -0.0000084136
O         0.0000687644       -0.0000573801       -0.0002274751
O        -0.0000388594       -0.0005029915        0.0002528520
O         0.0000028402        0.0000066543       -0.0007365752
O        -0.0007960096       -0.0000081560        0.0014864180
O        -0.0000077079       -0.0000270230        0.0010801654
O        -0.0000410278       -0.0006953675       -0.0012368705
O        -0.0003659304        0.0000222973       -0.0000790084
O        -0.0000313109       -0.0001002121        0.0003833132
O         0.0000858547       -0.0007494385       -0.0014666163
O         0.0000086866       -0.0000067831        0.0008143783
O        -0.0000309932       -0.0003989071        0.0000940039
O        -0.0000765517       -0.0000737382       -0.0003870071
O        -0.0006671839       -0.0001044364        0.0011815175
O        -0.0000108242       -0.0000574088       -0.0010309727
O        -0.0000068844        0.0000454974        0.0002019492
O        -0.0004794577        0.0000450264       -0.0002421638
O         0.0000305011       -0.0002640541       -0.0000729439
O        -0.0000780224       -0.0000422421        0.0002413130
O         0.0002952097        0.0000166629       -0.0005999040
O        -0.0002223394       -0.0000298488        0.0011291000
O         0.0000079692       -0.0002081301        0.0007917683
O        -0.0000392287        0.0000703043       -0.0013214822
O        -0.0001172601        0.0000402464        0.0000170001
O         0.0004073067       -0.0000158373        0.0002324084
O         0.0001092348        0.0000870169       -0.0015717196
O         0.0000304645       -0.0001745470        0.0005860835
O        -0.0002797192       -0.0000067944        0.0001813322
O        -0.0000190316        0.0000121949       -0.0000225080
O        -0.0000649980       -0.0000504926        0.0000477290
O        -0.0000857780       -0.0003153504       -0.0002121673
O         0.0001602272        0.0000113400        0.0015184613
O        -0.0001956346        0.0000308400       -0.0005428388
O        -0.0000247749       -0.0000810086        0.0000185812
O        -0.0000956776        0.0003313216       -0.0002714274
O         0.0000825633       -0.0001223204        0.0011648375
O        -0.0002445930       -0.0000248165       -0.0007538587
O         0.0000597613       -0.0001082008       -0.0012081627
O         0.0000165867        0.0002960207        0.0006654868
O        -0.0002342964        0.0001024018        0.0000393862
O         0.0000315283        0.0000315590       -0.0002148089
O         0.0000030100        0.0003620511        0.0009281885
O         0.0000210867       -0.0000949474       -0.0010375331
O        -0.0001310664        0.0000239798       -0.0001257772
O         0.0003589113        0.0001156160        0.0000737104
O         0.0000410891        0.0003172532       -0.0001151405
O        -0.0000606618       -0.0000957166        0.0001530753
O         0.0003601021       -0.0000349864       -0.0008524315
O        -0.0002098444       -0.0000561687        0.0009028184
O         0.0000437080        0.0001190870        0.0000844327
O        -0.0000330216        0.0003809013        0.0002085491
O         0.0000617302        0.0000205178       -0.0005031043
O         0.0005895909       -0.0000384093        0.0013328769
O        -0.0000050189        0.0001088889        0.0007691833
O        -0.0000123002        0.0005682346       -0.0011538160
O         0.0003138160        0.0000394725       -0.0000277347
O         0.0001212837       -0.0000830102       -0.0000021253
O         0.0000800307        0.0006527838       -0.0013678980
O         0.0000237429        0.0001000854        0.0005920158
O        -0.0000139266        0.0002943323        0.0000604465
O        -0.0000504728        0.0001324058       -0.0000261638
O         0.0005106867       -0.0000923538        0.0010817814
O         0.0000663622       -0.0000418751       -0.0006967433
O         0.0001144023        0.0000133280       -0.0001127268
O         0.0003832768        0.0000435414       -0.0001697792
O        -0.0000668679       -0.0000389268       -0.0001399675
O        -0.0000576650       -0.0004560331        0.0001184196
O         0.0000229248       -0.0000333817       -0.0008788804
O        -0.0006047586        0.0000293770        0.0011007574
O        -0.0000143317        0.0000203563        0.0009171253
O         0.0000720110       -0.0005961424       -0.0011826571
O        -0.0004459054        0.0000455104       -0.0000918162
O         0.0000028700       -0.0000154280        0.0001086146
O        -0.0000377065       -0.0002743049        0.0000304134
O        -0.0000184853       -0.0000273813        0.0000640506
O         0.0002971546       -0.0000577504       -0.0007619953
O        -0.0002104435       -0.0000231113        0.0008943586
O        -0.0000290414       -0.0001969540        0.0007246461
O         0.0000822714        0.0000256922       -0.0011329148
O        -0.0000932895        0.0000312065        0.0000059472
O         0.0003296826       -0.0000668332       -0.0000251157
O        -0.0002468597       -0.0000611900       -0.0000415809
O         0.0000301189        0.0000662116       -0.0000291079
O         0.0000590316        0.0000320262        0.0011377966
O        -0.0002194017       -0.0000553897       -0.0006755741
O        -0.0000358050       -0.0000751224        0.0000149632
O        -0.0000441164        0.0002817452       -0.0000022410
O         0.0000124034       -0.0001056592       -0.0008914615
O        -0.0000279822        0.0002945723        0.0008299874
O        -0.0000444686        0.0001011362        0.0001381013
O        -0.0000611900        0.0003000962        0.0000799687
O         0.0000843375       -0.0000347757       -0.0006137994
O         0.0005049328        0.0000125042        0.0010068088
O        -0.0000207328        0.0001156835        0.0006536499
O         0.0000388524        0.0005445248       -0.0011005439
O         0.0002946151        0.0000306378       -0.0000580609
O         0.0001268297        0.0000066161       -0.0001777922
     192
 i =        7, E =     -5781.7295715052
Ti         0.0006462333        0.0002139021        0.0000359039
Ti         0.0001357276        0.0001557401       -0.0000449230
Ti         0.0001538001        0.0001445677        0.0001955871
Ti         0.0001760922        0.0001759928        0.0000274396
Ti         0.0000915000        0.0008023697       -0.0001539564
Ti         0.0002272330       -0.0002181484        0.0001331826
Ti        -0.0000621287        0.0001283090       -0.0004201704
Ti         0.0000825427        0.0001368911        0.0002769303
Ti         0.0000330821        0.0001367325        0.0005372822
Ti         0.0001793574       -0.0001725711        0.0001482268
Ti         0.0000607772        0.0000566789        0.0000170834
Ti        -0.0008017064        0.0007880696        0.0001493480
Ti         0.0002885797        0.0005871622        0.0001729613
Ti        -0.0001768178        0.0001922263       -0.0001712840
Ti        -0.0001786674        0.0002023782       -0.0003733630
Ti         0.0000882076        0.0000486064       -0.0007159268
Ti         0.0000892286        0.0000322159       -0.0000635378
Ti         0.0002455167       -0.0002796939       -0.0001479349
Ti         0.0001222931        0.0000271544       -0.0004931640
Ti         0.0001176792       -0.0000408195        0.0001746682
Ti         0.0003117344       -0.0004607879       -0.0002394752
Ti         0.0001087954       -0.0002341625       -0.0000050414
Ti        -0.0000175649       -0.0000537472       -0.0006067905
Ti        -0.0001969243        0.0001551971        0.0002715900
Ti         0.0000025156       -0.0000223407        0.0008465431
Ti         0.0001310387       -0.0002555125       -0.0000552340
Ti        -0.0002068604        0.0001015140       -0.0000126555
Ti        -0.0000014191       -0.0001552383        0.0002613323
Ti         0.0001534210       -0.0001918793        0.0000521008
Ti        -0.0002438801       -0.0002218467        0.0000088294
Ti         0.0000265728       -0.0000357054       -0.0003392427
Ti         0.0000655883        0.0000217584        0.0005721561
Ti        -0.0001295120        0.0001641814        0.0006655963
Ti         0.0001408206       -0.0001595630       -0.0004154200
Ti         0.0000154073        0.0000181746       -0.0000142012
Ti        -0.0003317058       -0.0007684376       -0.0000138214
Ti        -0.0001196967       -0.0001920687        0.0000635497
Ti         0.0000162634        0.0000480725        0.0006330618
Ti         0.0004646181       -0.0004829681        0.0000376485
Ti        -0.0001757298        0.0000453897       -0.0001965597
Ti         0.0000675770       -0.0001768847        0.0001816170
Ti         0.0000184208       -0.0000169766        0.0000140046
Ti        -0.0001673282       -0.0000882107        0.0001509555
Ti         0.0000098963       -0.0000320455       -0.0004625710
Ti        -0.0001615093        0.0003402796       -0.0000894068
Ti        -0.0001619292       -0.0002747146       -0.0001358216
Ti         0.0000024105       -0.0000010798       -0.0007690157
Ti        -0.0001587241       -0.0000137313        0.0003567019
Ti        -0.0001192636       -0.0000400192        0.0007789477
Ti         0.0000720026       -0.0000994723       -0.0007790603
Ti        -0.0001094151        0.0000252840       -0.0000335019
Ti        -0.0002373100        0.0002948240        0.0001149300
Ti        -0.0000416050       -0.0001757393       -0.0005784673
Ti        -0.0000054044        0.0000402439        0.0006373060
Ti         0.0000540576       -0.0001541309        0.0000365017
Ti        -0.0001316721        0.0002796111       -0.0001115118
Ti        -0.0000541074        0.0000679078        0.0005265821
Ti        -0.0000554526       -0.0001364453       -0.0010249101
Ti        -0.0001252867        0.0002541114        0.0000864507
Ti        -0.0002320336       -0.0001988610        0.0001633742
Ti         0.0001338340       -0.0001498065       -0.0000018909
Ti        -0.0001790226       -0.0001806030        0.0000176192
Ti        -0.0000166386       -0.0000603776       -0.0006311672
Ti        -0.0000408192        0.0000234328        0.0007658233
O         0.0000022205        0.0001458090        0.0006450816
O         0.0000360712       -0.0002053537       -0.0005715795
O         0.0000040886       -0.0000435418       -0.0003423751
O        -0.0006020759        0.0000215513       -0.0002446066
O        -0.0000421878       -0.0000210458        0.0003417892
O        -0.0000282277       -0.0007854811        0.0001231049
O        -0.0002221956       -0.0000061119        0.0006524403
O        -0.0001148638        0.0000096044       -0.0006849835
O         0.0000158422       -0.0001057866        0.0006692061
O        -0.0000530730       -0.0000153821       -0.0006697368
O         0.0001583928       -0.0000146479       -0.0002143291
O        -0.0001429195        0.0000347387       -0.0003943492
O        -0.0000070451       -0.0000907879        0.0001459276
O        -0.0000143614        0.0000691279        0.0002208363
O        -0.0000453350        0.0000142117        0.0006592119
O         0.0001461502        0.0000520051       -0.0007286008
O        -0.0000943542        0.0000612208       -0.0007040895
O         0.0000257558       -0.0000207353        0.0007189300
O         0.0002326747        0.0000258182       -0.0000600315
O        -0.0001137525       -0.0000068012       -0.0001538334
O        -0.0000270402       -0.0001245774       -0.0006033849
O         0.0000104507        0.0001078867        0.0007226959
O         0.0000351395       -0.0001988146        0.0005113482
O        -0.0000079960        0.0001503312        0.0002216831
O         0.0000152242        0.0002264483        0.0007391471
O         0.0000356075        0.0001634483       -0.0006819538
O         0.0000718808       -0.0000402893       -0.0000824473
O         0.0005770336        0.0000010187       -0.0003840548
O        -0.0000332999        0.0001279500        0.0000421827
O         0.0000124015        0.0005222132        0.0003201904
O         0.0000925372        0.0000066783        0.0007177951
O        -0.0000045060        0.0000061689       -0.0007557386
O         0.0000498204       -0.0000170718        0.0006943147
O        -0.0000189809       -0.0002958624       -0.0005576695
O         0.0000393383       -0.0000069953       -0.0001173049
O        -0.0005229330       -0.0000291086       -0.0002697375
O         0.0000279029       -0.0000349882        0.0004371689
O         0.0001045683       -0.0004010474        0.0005558065
O        -0.0000582799        0.0000171261        0.0005939569
O         0.0000077949        0.0000210990       -0.0006824114
O        -0.0000197568       -0.0006092198        0.0003707310
O         0.0000269603        0.0000277038        0.0001037046
O        -0.0000616290       -0.0001157453       -0.0005200427
O        -0.0000019297       -0.0000583201        0.0006497414
O        -0.0003041979        0.0000510476       -0.0004676417
O        -0.0000076357        0.0000544411       -0.0004867618
O         0.0000443556        0.0000594823       -0.0007260257
O        -0.0002377938        0.0000265297        0.0006185709
O         0.0000438258        0.0001568891        0.0006307698
O         0.0000752255        0.0000365267       -0.0006549431
O         0.0001018765       -0.0000204328       -0.0000587746
O        -0.0001119317       -0.0000550402       -0.0005157122
O        -0.0000020023       -0.0001221161        0.0001900887
O         0.0000593424       -0.0000095525        0.0004981020
O        -0.0000867973        0.0000142442        0.0005788604
O         0.0000305228       -0.0000216206       -0.0007400348
O        -0.0000229876        0.0000544962        0.0002206140
O        -0.0000050872       -0.0000329210        0.0000290492
O        -0.0001381590       -0.0000250977       -0.0006958185
O        -0.0000901349        0.0000154193        0.0006755381
O        -0.0000104767       -0.0000324700       -0.0006362938
O        -0.0000164285        0.0001301931        0.0006270075
O         0.0001826658       -0.0000176826       -0.0003066412
O        -0.0000491989       -0.0000277190       -0.0000623383
O         0.0000055075       -0.0000756067       -0.0005415317
O        -0.0000174010        0.0002774465        0.0007165729
O         0.0000824974        0.0000218377       -0.0005582856
O        -0.0001541756        0.0000074877       -0.0002314483
O        -0.0000678772       -0.0001542226        0.0004248018
O        -0.0000000703        0.0001055761        0.0000353496
O        -0.0000522220        0.0000267818       -0.0006815612
O         0.0000046444        0.0000407603        0.0006705012
O        -0.0000048842        0.0001803541        0.0003194855
O         0.0000843710       -0.0001309783        0.0005255862
O        -0.0001567863        0.0000270974        0.0006596466
O        -0.0000538701        0.0000277326       -0.0007498625
O         0.0000372374        0.0001969745        0.0007408778
O         0.0000368471       -0.0001107722       -0.0006241556
O         0.0001929766        0.0000143884       -0.0003232392
O        -0.0000394417        0.0000546463       -0.0005753597
O         0.0000354365        0.0000194873        0.0006380016
O        -0.0000271052        0.0001879928       -0.0006752929
O         0.0000614047       -0.0000236114        0.0000146149
O         0.0004941513       -0.0000237035       -0.0003871470
O         0.0000190204        0.0001386347        0.0000822444
O         0.0000933649        0.0002042104        0.0006825074
O         0.0000572164        0.0000120749        0.0006230538
O         0.0000455229        0.0000263281       -0.0007132189
O        -0.0000515443        0.0003633715        0.0005418291
O         0.0000034997        0.0000898529       -0.0000269704
O        -0.0000578437        0.0000135350       -0.0006220368
O        -0.0000160165        0.0000464272        0.0006794750
O         0.0002607111        0.0000770725       -0.0005112102
O         0.0000907613        0.0000309819       -0.0000878541
O         0.0000208845        0.0000642158       -0.0006337141
O         0.0002528766        0.0000218375        0.0006730414
O        -0.0000598977        0.0002169083        0.0006802037
O         0.0000348899       -0.0001155418       -0.0005361102
O         0.0000165232       -0.0000341113       -0.0001934048
O        -0.0002043560       -0.0000736586       -0.0005907364
O        -0.0000174663        0.0000029472        0.0001580088
O        -0.0000062061       -0.0002891049        0.0004786021
O        -0.0001787394        0.0000126175        0.0005617148
O        -0.0000061103       -0.0000476631       -0.0007226607
O        -0.0000342037        0.0000325150        0.0005949152
O        -0.0000382900       -0.0000398696       -0.0006307205
O         0.0001340234       -0.0000037108       -0.0000868820
O        -0.0000219065       -0.0000938333       -0.0005493897
O         0.0000080378       -0.0000567756        0.0000484590
O         0.0000192684       -0.0000591455        0.0007024154
O        -0.0000354101       -0.0000070588        0.0005724357
O         0.0000099385       -0.0000493219       -0.0007222261
O         0.0000372257       -0.0000384620       -0.0006489912
O         0.0000113755        0.0000154015        0.0006290339
O         0.0000296839       -0.0000605666       -0.0005787602
O        -0.0000931414        0.0000029915       -0.0000508898
O        -0.0000538485       -0.0001078835       -0.0005299938
O        -0.0000361224       -0.0000182018        0.0007190424
O        -0.0000150483       -0.0001204330        0.0006154502
O         0.0000014977        0.0001252658        0.0000684180
O        -0.0000447966        0.0001299116        0.0005839116
O         0.0000263387        0.0000819776       -0.0006372782
O         0.0000728497       -0.0000181610        0.0000035022
O         0.0001808966       -0.0001016159       -0.0006071465
O        -0.0000016744        0.0001079973       -0.0000324468
O        -0.0000105284        0.0000954478        0.0005842124
O         0.0000612454        0.0000089154        0.0006323333
O        -0.0000267779       -0.0000460675       -0.0006050648
     192
 i =        8, E =     -5781.7296515054
Ti         0.0007946523        0.0006119234        0.0000449450
Ti         0.0002248261        0.0001939145       -0.0000474541
Ti         0.0001804038        0.0001908290        0.0007061486
Ti         0.0002590362        0.0002305364       -0.0006106951
Ti         0.0001608426        0.0010564663       -0.0001458871
Ti         0.0002713910       -0.0001873099        0.0000784009
Ti        -0.0001641845        0.0001541200        0.0002407851
Ti         0.0001177349        0.0001553088        0.0000881701
Ti         0.0000479616        0.0002530937        0.0001229255
Ti         0.0002297677       -0.0001764383        0.0010919096
Ti         0.0000439808        0.0000538157       -0.0000594031
Ti        -0.0011933041        0.0007154495        0.0001711575
Ti         0.0007689104        0.0003825600        0.0001905299
Ti        -0.0002002870        0.0002669554       -0.0001559976
Ti        -0.0001632118        0.0002620264       -0.0011821908
Ti         0.0002247351        0.0000326411       -0.0001676469
Ti         0.0000586476        0.0000310263       -0.0000182021
Ti         0.0004438472       -0.0008989827       -0.0001433283
Ti         0.0001391826        0.0000634014       -0.0001712983
Ti         0.0001767129       -0.0001623905       -0.0003009004
Ti         0.0001792651       -0.0004605873       -0.0002050822
Ti         0.0001645078       -0.0003014360        0.0000488620
Ti        -0.0000940905       -0.0000908435       -0.0003019358
Ti        -0.0003155473        0.0001656708       -0.0001204977
Ti        -0.0000228152       -0.0000759438        0.0004176427
Ti         0.0001585866       -0.0003729901        0.0001889096
Ti        -0.0002406513        0.0001112918       -0.0000847660
Ti        -0.0002534294       -0.0000272089        0.0002440039
Ti         0.0002718690        0.0001604294        0.0000511220
Ti        -0.0002038989       -0.0002164544       -0.0000128394
Ti        -0.0000419346       -0.0000071275       -0.0001886946
Ti         0.0000785531       -0.0000184090        0.0002931526
Ti        -0.0001072071        0.0003267640        0.0001593912
Ti         0.0003105926       -0.0001486743       -0.0001002770
Ti         0.0000338851       -0.0000060026       -0.0000224665
Ti        -0.0007082968       -0.0008671184       -0.0000029980
Ti        -0.0002722762       -0.0001925275        0.0006279708
Ti         0.0000104328        0.0001150782        0.0003153323
Ti         0.0007003812       -0.0003401027        0.0000648257
Ti        -0.0001158388        0.0000570412       -0.0001078352
Ti         0.0001240508       -0.0001486793        0.0000634373
Ti        -0.0001596221        0.0005016040        0.0000037266
Ti        -0.0001608036       -0.0002399924       -0.0005502954
Ti         0.0000779447       -0.0000359755       -0.0002773523
Ti         0.0000117131        0.0000770544       -0.0000586426
Ti        -0.0001829254       -0.0003689235       -0.0000410340
Ti        -0.0000175320       -0.0000208091       -0.0003987501
Ti        -0.0002269968       -0.0000643770        0.0000584044
Ti        -0.0000829146       -0.0001095176        0.0004639303
Ti         0.0001618656       -0.0001198983       -0.0003500004
Ti        -0.0001519618        0.0000156375       -0.0000561764
Ti        -0.0003036290        0.0001501063        0.0001198460
Ti        -0.0001194825       -0.0002646953       -0.0001372511
Ti        -0.0000120447        0.0000004260        0.0003772202
Ti         0.0000286907       -0.0001611044        0.0000288938
Ti        -0.0000716979       -0.0000344570       -0.0000879210
Ti        -0.0000723102        0.0001762490        0.0002333335
Ti        -0.0001282254       -0.0001142304       -0.0005547007
Ti        -0.0001490901        0.0002283416        0.0000882320
Ti        -0.0003634282       -0.0001715288        0.0000521962
Ti         0.0000234964       -0.0000724606        0.0000136902
Ti        -0.0001809278       -0.0002142906       -0.0000003710
Ti        -0.0000585657       -0.0000630904       -0.0004033407
Ti        -0.0000382689       -0.0000367892        0.0004293772
O         0.0000040757       -0.0000542748        0.0001179443
O        -0.0000136251       -0.0002746277       -0.0001759283
O        -0.0000305113        0.0000221528       -0.0003635073
O        -0.0007580897       -0.0000606375        0.0001994116
O         0.0000251369       -0.0000139805        0.0003575725
O        -0.0000205451       -0.0007933358       -0.0002586627
O        -0.0002849617        0.0000455980        0.0001997729
O        -0.0001153768        0.0000138671       -0.0001533308
O         0.0000002095       -0.0002973843        0.0003126943
O         0.0000058142       -0.0000344830       -0.0002430763
O         0.0002570494        0.0000089671       -0.0001518133
O        -0.0002005101       -0.0000220716       -0.0001441818
O         0.0000151656       -0.0001700074        0.0000848034
O        -0.0000526014        0.0001677946       -0.0003453689
O        -0.0000533115        0.0000592956        0.0002441793
O         0.0004110995       -0.0000104117       -0.0002660857
O        -0.0002744515       -0.0000070201       -0.0003471735
O         0.0000387747        0.0000446158        0.0002715896
O         0.0001773357       -0.0001054594        0.0003928576
O        -0.0001871931        0.0000099296       -0.0000439491
O         0.0000278784       -0.0001192401       -0.0002182987
O        -0.0000035359        0.0003659825        0.0002758772