     192
 i =        6, E =     -5781.7292916600
Ti         0.0010290349        0.0017792418       -0.0001080235
Ti         1.8886192757        1.8885398944        4.8076047261
Ti         0.0011351472        1.8886488129        2.4049903199
Ti         1.8885526460        0.0011314399        7.2099082999
Ti         0.0013878375        3.7764114148        0.0027924240
Ti         1.8886786710       13.2376349439        4.8058848112
Ti        11.3499239580        1.8884815166        2.4065935157
Ti         5.6694513379        0.0010460910        7.2143213129
Ti         1.8885254457        3.7764679887        7.2072099747
Ti         0.0010764019       13.2374840756        2.4069210618
Ti         5.6696227547        1.8888078737        4.8034698918
Ti        11.3498408676        0.0007130332       -0.0016439475
Ti         3.7771694938        0.0007440401       -0.0029918167
Ti        13.2375698848        1.8887356064        4.8093146782
Ti        13.2375339789        0.0010782749        7.2082416039
Ti         3.7764706664        1.8885020197        2.4078800152
Ti         1.8887182674        5.6696694594        4.8117229302
Ti         0.0014012093       11.3491284023        0.0014978725
Ti         0.0010505385        5.6695336680        2.4007433293
Ti         1.8885166400       11.3499440112        7.2084365533
Ti         0.0009883237        7.5694367373        0.0055167952
Ti         1.8886446141        9.4622724149        4.8088277788
Ti         7.5693684777        1.8887316109        2.4104121232
Ti         9.4624651297        0.0011449992        7.2113026157
Ti         1.8886400592        7.5693713292        7.2044839142
Ti         0.0011413587        9.4625862408        2.4037246981
Ti         9.4623769750        1.8885657542        4.8063513726
Ti         7.5689679866        0.0016844940       -0.0056710362
Ti         3.7767349677        3.7773053480       -0.0001487726
Ti        13.2375170372       13.2374273000        4.8075948446
Ti        11.3499506088        5.6697018189        2.4021430342
Ti         5.6695246639       11.3499271416        7.2127668248
Ti        13.2375956704        3.7765720158        7.2054664337
Ti         3.7765625365       13.2376325793        2.4095272171
Ti         5.6695804518        5.6695017411        4.8075806710
Ti        11.3494655613       11.3501664832       -0.0000475743
Ti        11.3500065388       13.2376585874        2.4082834263
Ti         5.6695224281        3.7765903741        7.2115442056
Ti         3.7767624552       11.3501631050       -0.0014491149
Ti        13.2375376370        5.6694648007        4.8133912721
Ti         5.6695813135       13.2374582107        4.8017868478
Ti        11.3495228242        3.7773027440        0.0012454628
Ti        13.2376125019       11.3500096794        7.2066318546
Ti         3.7765954401        5.6696802784        2.4034189092
Ti         3.7771091460        7.5686059584        0.0026367601
Ti        13.2375714300        9.4624342219        4.8104995857
Ti         7.5692998228        5.6695483968        2.4061682607
Ti         9.4624398424       11.3499149071        7.2098438062
Ti        13.2375638712        7.5693161641        7.2028523740
Ti         3.7765030619        9.4624191855        2.4065725526
Ti         9.4623432149        5.6696677558        4.8104951998
Ti         7.5693007908       11.3491999185       -0.0041055916
Ti        11.3499234011        9.4624548035        2.4052811347
Ti         5.6694895578        7.5693010787        7.2088838757
Ti         5.6696237216        9.4624040139        4.8046602809
Ti        11.3498557982        7.5685370547        0.0039858958
Ti         9.4623877788        3.7764840760        7.2085925534
Ti         7.5693088852       13.2375127892        2.4122589545
Ti         7.5693249400        3.7764109797       -0.0028116313
Ti         9.4624023529       13.2376472636        4.8046631238
Ti         7.5689839431        7.5694751839       -0.0000599111
Ti         9.4623595433        9.4622705628        4.8075753613
Ti         7.5693745481        9.4625135999        2.4091392904
Ti         9.4624160191        7.5693832560        7.2058446102
O         0.0007247411        0.0014060870        1.9899435689
O         1.8844733386        1.8876803463        6.8015165790
O         0.0016271339        1.8843302694        4.3971330180
O         1.8877740258        0.0008828152        9.2061821489
O         1.8841112661        0.0015870670        5.2178225598
O         0.0002544831        1.8878763503        0.4094302170
O         1.8876906617        1.8838242753        2.8134499859
O         0.0016489694        0.0002338405        7.6251484521
O         0.0006733511        3.7758940045        1.9877818279
O         1.8843867569       13.2369430931        6.8017280285
O        11.3510345361        1.8844580158        4.3970099010
O         5.6722048589        0.0009756961        9.2065101139
O         1.8843442527        3.7759434061        5.2199567671
O         0.0002640276       13.2369481046        0.4085346772
O         5.6720689475        1.8839712321        2.8125864285
O        11.3511322194        0.0005971783        7.6251509975
O         3.7757906165        0.0006508632        7.6272680855
O        13.2368586966        1.8836887801        2.8132368749
O        13.2368260250        0.0009288164        9.2061101962
O         3.7759954981        1.8845903362        4.3948347752
O         1.8845746562        5.6721400623        6.8023834510
O         0.0006188645       11.3511893625        1.9898186293
O         0.0003711484        5.6721947528        0.4082102472
O         1.8842042739       11.3509779910        5.2177535637
O         0.0007738101        7.5668732746        1.9910631537
O         1.8846092759        9.4628054981        6.7994017329
O         7.5669272381        1.8845181837        4.3979327570
O         9.4625622655        0.0009778539        9.2038949380
O         1.8843305630        7.5668685165        5.2170368016
O         0.0003379296        9.4625610238        0.4116304238
O         9.4627936340        1.8839992293        2.8155778827
O         7.5670095235        0.0003203295        7.6240138512
O         3.7691538230        0.0016254257        1.9904891072
O        13.2381257185        1.8876901848        6.8013874635
O         0.0016944207        5.6559956612        4.3968159331
O         1.8877853725       11.3549207623        9.2060577716
O        13.2377734579        0.0016183866        5.2178522112
O         3.7686828833        1.8878711282        0.4085988962
O         1.8877150336        5.6555525278        2.8136605890
O         0.0015791355       11.3543776093        7.6249448569
O        11.3542409187        1.8878470188        0.4086924153
O         5.6557461889        0.0016601187        5.2179696053
O         5.6562473850        1.8877777175        6.8013208611
O        11.3544024284        0.0016108149        1.9901423896
O         1.8878197629        3.7693651360        9.2061198176
O         0.0016608167       13.2380416537        4.3969806116
O         0.0016017161        3.7691355016        7.6244992442
O         1.8876098311       13.2374449069        2.8136014467
O         3.7696121665        3.7757068164        1.9885618533
O        13.2381898249       13.2369426447        6.8015070861
O        11.3508927149        5.6561312166        4.3967955010
O         5.6721271031       11.3546765291        9.2068676376
O        13.2376778456        3.7759519411        5.2203485110
O         3.7685374100       13.2369076608        0.4089518564
O         5.6721697483        5.6561552071        2.8125908366
O        11.3512100336       11.3540032602        7.6249211069
O        11.3542996146       13.2369027795        0.4090730057
O         5.6562082670        3.7760675454        5.2201978172
O         3.7758286615       11.3538543546        7.6269679759
O        13.2369070765        5.6554170418        2.8135483887
O         5.6560752060       13.2368964000        6.8014280777
O        11.3543048814        3.7756613315        1.9881869432
O        13.2368165217       11.3549758853        9.2065222360
O         3.7760937709        5.6564173029        4.3948042732
O         5.6567208804        5.6721774563        6.8023896420
O        11.3544683635       11.3509888080        1.9902078141
O        13.2368094410        3.7692441835        9.2065728840
O         3.7760022566       13.2378975061        4.3946818332
O        11.3540761892        5.6721274901        0.4086997288
O         5.6559060407       11.3508531541        5.2181833127
O         3.7758824155        3.7691792416        7.6264860326
O        13.2369456971       13.2375143611        2.8134746311
O        13.2377532533       11.3509281932        5.2180746626
O         3.7690306713        5.6721326106        0.4085136819
O         5.6721916702       13.2375102963        2.8127738522
O        11.3511520367        3.7689124765        7.6244880917
O         3.7693553752       11.3509577679        1.9905263946
O        13.2380841924        5.6721941152        6.8022061219
O        11.3509871542       13.2379825706        4.3969269363
O         5.6721025692        3.7696367037        9.2070161182
O         3.7695366526        7.5671109858        1.9915563159
O        13.2380683862        9.4627748531        6.7992133457
O         7.5669298993        5.6566475333        4.3979144427
O         9.4625890310       11.3547449314        9.2038398446
O        13.2377326096        7.5668522140        5.2170433513
O         3.7689536038        9.4626674536        0.4106803612
O         9.4625909565        5.6558595186        2.8156051723
O         7.5669796372       11.3541961716        7.6238481687
O        11.3541193885        9.4626860156        0.4108392746
O         5.6564281605        7.5668757479        5.2168950519
O         5.6565313644        9.4626580818        6.7993686119
O        11.3541910635        7.5671097397        1.9911912254
O         9.4626079063        3.7696186819        9.2039892986
O         7.5669104786       13.2379665573        4.3978037423
O         7.5669895291        3.7695480196        7.6234124730
O         9.4626872918       13.2374078777        2.8157788892
O         7.5830569535        0.0014685302        1.9903307904
O         9.4696712541        1.8877077348        6.8016964963
O         0.0016352390        9.4695410280        4.3973421602
O         1.8878366966        7.5832563284        9.2059863598
O         9.4693176759        0.0015929313        5.2177072438
O         7.5825713937        1.8879157063        0.4095883930
O         1.8877187520        9.4690472380        2.8132780620
O         0.0016881400        7.5826275850        7.6248009787
O         7.5824625416        3.7760144601        1.9883546232
O         9.4697650810       13.2369248017        6.8019264963
O        11.3509896670        9.4695248115        4.3972055894
O         5.6721527508        7.5827880543        9.2065998957
O         9.4690037126        3.7759661104        5.2197797553
O         7.5827602358       13.2369223768        0.4087868066
O         5.6720417108        9.4687277255        2.8123690528
O        11.3510213538        7.5827771725        7.6248092417
O         3.7759165372        7.5824546020        7.6267153953
O        13.2368428538        9.4690644266        2.8130599657
O        13.2367986647        7.5835119412        9.2059049802
O         3.7759995822        9.4692437620        4.3950832941
O         9.4693310935        5.6721267168        6.8026162755
O         7.5827882929       11.3510707999        1.9902077515
O         7.5821287687        5.6721790411        0.4081376391
O         9.4692739529       11.3509532196        5.2176481547
O         7.5824032007        7.5668812255        1.9916067683
O         9.4694271019        9.4627772235        6.7996392309
O         7.5669197497        9.4691448711        4.3981733968
O         9.4625065910        7.5829792795        9.2039554554
O         9.4689521428        7.5668893499        5.2168672666
O         7.5823087141        9.4625084179        0.4115596597
O         9.4627701109        9.4688260701        2.8153487482
O         7.5670247504        7.5819996693        7.6235077235
     192
 i =        7, E =     -5781.7295715052
Ti         0.0016851027        0.0032400063       -0.0000628981
Ti         1.8886752918        1.8888473073        4.8074907633
Ti         0.0014142160        1.8887370139        2.4082575068
Ti         1.8886097186        0.0013779933        7.2063964246
Ti         0.0021273312        3.7778467068        0.0026209067
Ti         1.8888409425       13.2373853191        4.8059338765
Ti        11.3498176443        1.8886246607        2.4097039955
Ti         5.6695504228        0.0013435564        7.2121546366
Ti         1.8886083569        3.7767670218        7.2046538398
Ti         0.0014315683       13.2374000068        2.4109198577
Ti         5.6696884760        1.8887648635        4.8031434395
Ti        11.3485522235        0.0012650965       -0.0013594147
Ti         3.7789707025        0.0012570505       -0.0026413272
Ti        13.2373308852        1.8888183895        4.8090748312
Ti        13.2373105049        0.0014316563        7.2045783403
Ti         3.7768034502        1.8886252818        2.4106261793
Ti         1.8887283511        5.6695999748        4.8118292580
Ti         0.0023339295       11.3473514179        0.0013482476
Ti         0.0013615664        5.6694637132        2.4031013455
Ti         1.8886550283       11.3497215084        7.2054451332
Ti         0.0015494138        7.5685066915        0.0056079705
Ti         1.8886569070        9.4620566515        4.8091144485
Ti         7.5690451906        1.8887530694        2.4126340655
Ti         9.4622356252        0.0013623260        7.2087096427
Ti         1.8886390707        7.5689330753        7.2021549969
Ti         0.0014127131        9.4622129173        2.4061816140
Ti         9.4619750981        1.8887858193        4.8059321795
Ti         7.5679306910        0.0025516388       -0.0055924509
Ti         3.7777944397        3.7785572896       -0.0000920103
Ti        13.2371428581       13.2373986545        4.8075307839
Ti        11.3498627996        5.6696077898        2.4038653220
Ti         5.6695577690       11.3498090870        7.2108172576
Ti        13.2373377761        3.7768216405        7.2026786312
Ti         3.7769679441       13.2374298673        2.4122030015
Ti         5.6695689169        5.6696095784        4.8075046505
Ti        11.3480217940       11.3492839928        0.0000732390
Ti        11.3497313899       13.2374776176        2.4113154741
Ti         5.6695355120        3.7767132970        7.2098314587
Ti         3.7782050268       11.3494637697       -0.0013145398
Ti        13.2372283963        5.6696255935        4.8133853869
Ti         5.6696159286       13.2374148889        4.8016275876
Ti        11.3485332213        3.7789058451        0.0012656568
Ti        13.2373386641       11.3497173018        7.2033109216
Ti         3.7768274295        5.6695598668        2.4050350113
Ti         3.7781262824        7.5677732309        0.0029174073
Ti        13.2373279429        9.4619788535        4.8106709417
Ti         7.5691450922        5.6694563058        2.4077577441
Ti         9.4622188934       11.3498120364        7.2076693993
Ti        13.2373395886        7.5689322394        7.2004430177
Ti         3.7767838008        9.4622351943        2.4085982492
Ti         9.4620683584        5.6695796868        4.8102898393
Ti         7.5684509516       11.3483038635       -0.0042557421
Ti        11.3498926786        9.4622755940        2.4076004878
Ti         5.6695590585        7.5690137112        7.2073882381
Ti         5.6696622015        9.4620574855        4.8047327674
Ti        11.3491202102        7.5674425361        0.0042561409
Ti         9.4621704161        3.7767140348        7.2067280816
Ti         7.5690893724       13.2373990601        2.4147988207
Ti         7.5686289418        3.7773263644       -0.0029317671
Ti         9.4620403970       13.2373950924        4.8044084478
Ti         7.5683311119        7.5688454780        0.0000221401
Ti         9.4619953289        9.4620959178        4.8075411538
Ti         7.5690957809        9.4621655687        2.4107061344
Ti         9.4621944740        7.5690081158        7.2041597937
O         0.0006417015        0.0011086125        1.9882101335
O         1.8839511497        1.8871358498        6.8021445609
O         0.0016045541        1.8845736779        4.3962230165
O         1.8874886457        0.0000015962        9.2107163199
O         1.8845580442        0.0016338099        5.2187546097
O         0.0004246781        1.8878304841        0.4048428933
O         1.8871848871        1.8841075901        2.8127299740
O         0.0015676580        0.0007822459        7.6268640431
O         0.0007515081        3.7751500339        1.9866569575
O         1.8841074687       13.2368774296        6.8023992315
O        11.3513343489        1.8845109900        4.3962463593
O         5.6720678305        0.0002836177        9.2098412861
O         1.8846519948        3.7755993851        5.2210814397
O         0.0002253504       13.2369102694        0.4033769483
O         5.6719160311        1.8843499936        2.8122343339
O        11.3518013304        0.0004459476        7.6265359437
O         3.7750738997        0.0004578234        7.6285213956
O        13.2369511246        1.8840586166        2.8125261779
O        13.2367272273       -0.0000831070        9.2109169204
O         3.7755800581        1.8846559257        4.3940453849
O         1.8844837032        5.6719748467        6.8026316522
O         0.0007385202       11.3518709818        1.9884562063
O         0.0003286221        5.6721725805        0.4047565356
O         1.8844994179       11.3513765484        5.2188670356
O         0.0006338331        7.5668813463        1.9905433883
O         1.8841411572        9.4630737165        6.8001527469
O         7.5669258296        1.8847650108        4.3970061555
O         9.4626458055        0.0003302138        9.2081027607
O         1.8846997742        7.5669312928        5.2180654202
O         0.0003605290        9.4626546465        0.4071776580
O         9.4631351586        1.8842874964        2.8148145691
O         7.5673315264        0.0007729752        7.6245801703
O         3.7696583463        0.0015096309        1.9896513905
O        13.2379183957        1.8871597991        6.8022708254
O         0.0016053499        5.6560504632        4.3959900975
O         1.8874921461       11.3551431511        9.2101381690
O        13.2377554490        0.0016247336        5.2186893266
O         3.7680284352        1.8874788482        0.4050644254
O         1.8873249679        5.6555562936        2.8130652096
O         0.0014338024       11.3535983856        7.6265177426
O        11.3551404122        1.8875501483        0.4046274417
O         5.6557486320        0.0016400516        5.2191396179
O         5.6559636948        1.8872861613        6.8017586850
O        11.3538557462        0.0014806483        1.9886731532
O         1.8874733681        3.7683176612        9.2094803963
O         0.0015839277       13.2376468401        4.3965481611
O         0.0014973814        3.7694164501        7.6254200000
O         1.8871929652       13.2378167281        2.8125584374
O         3.7698006836        3.7750239332        1.9879285128
O        13.2376415647       13.2368596489        6.8026122016
O        11.3512139868        5.6562490824        4.3959672770
O         5.6719690983       11.3546811971        9.2098882207
O        13.2377842176        3.7756153384        5.2210043961
O         3.7678976024       13.2369087447        0.4050419229
O         5.6719913375        5.6563665022        2.8122983263
O        11.3518780127       11.3539144874        7.6263148405
O        11.3554093762       13.2368686607        0.4045775347
O         5.6564144539        3.7757011331        5.2210056740
O         3.7752468970       11.3538412328        7.6281963787
O        13.2369061500        5.6553679302        2.8129626812
O         5.6555038131       13.2368614190        6.8019453235
O        11.3536944650        3.7748786597        1.9870106301
O        13.2367980569       11.3553743508        9.2109674347
O         3.7756874327        5.6566782521        4.3940524300
O         5.6564977198        5.6719692612        6.8026404694
O        11.3537728616       11.3514932377        1.9889180764
O        13.2367826199        3.7680385777        9.2101014473
O         3.7756093142       13.2377647325        4.3940389139
O        11.3547341989        5.6721563207        0.4054846691
O         5.6559697698       11.3512511442        5.2190275667
O         3.7753702777        3.7699081849        7.6271166745
O        13.2369350760       13.2377890584        2.8123325180
O        13.2378244339       11.3513839066        5.2186686069
O         3.7689573726        5.6721423424        0.4056288720
O         5.6720607126       13.2377057649        2.8120934933
O        11.3517208151        3.7697440410        7.6252158624
O         3.7696266203       11.3514232301        1.9898211986
O        13.2376586202        5.6720005004        6.8028143697
O        11.3513367330       13.2377720866        4.3962919202
O         5.6718602848        3.7690259549        9.2095750231
O         3.7698122371        7.5672685681        1.9915687126
O        13.2379076147        9.4630946716        6.8002342350
O         7.5669326043        5.6568175585        4.3971240905
O         9.4626044155       11.3546844475        9.2076318855
O        13.2377198821        7.5668975953        5.2180098497
O         3.7685824704        9.4630204043        0.4071410892
O         9.4630438859        5.6560448274        2.8149739719
O         7.5671713343       11.3535808438        7.6243208642
O        11.3549645084        9.4629760725        0.4068294072
O         5.6565668804        7.5669475329        5.2179808798
O         5.6564216564        9.4630102548        6.7999873715
O        11.3538729163        7.5673216788        1.9907600291
O         9.4627717155        3.7687014903        9.2072618576
O         7.5668941073       13.2376838251        4.3971189314
O         7.5671566199        3.7695464975        7.6234804843
O         9.4630922305       13.2377646502        2.8147957230
O         7.5824610743        0.0013060655        1.9896284723
O         9.4694219888        1.8871610527        6.8021401692
O         0.0016041034        9.4694558264        4.3962258571
O         1.8874659463        7.5836500236        9.2093795609
O         9.4693425083        0.0016323480        5.2188274237
O         7.5831614373        1.8876745970        0.4060607637
O         1.8872104909        9.4695722375        2.8127820956
O         0.0016000675        7.5823789949        7.6255555063
O         7.5821125093        3.7753697309        1.9880205285
O         9.4698749638       13.2368867862        6.8023556839
O        11.3512988693        9.4692387902        4.3962608733
O         5.6719086118        7.5827257764        9.2092571404
O         9.4688785256        3.7756073898        5.2209471628
O         7.5834172842       13.2369267480        0.4051679902
O         5.6718847335        9.4690814856        2.8122014482
O        11.3515311662        7.5821630547        7.6252866773
O         3.7753560603        7.5818805167        7.6271397464
O        13.2369476997        9.4697527116        2.8126470837
O        13.2367733649        7.5839202699        9.2095006506
O         3.7755838757        9.4689454732        4.3941631500
O         9.4692414183        5.6719467335        6.8027115360
O         7.5823884673       11.3515232594        1.9897901916
O         7.5822102847        5.6721052851        0.4054912879
O         9.4691905060       11.3513267533        5.2188773036
O         7.5820402874        7.5668684420        1.9916920408
O         9.4691171328        9.4630877578        6.8002447563
O         7.5669341045        9.4690127616        4.3970836663
O         9.4628020259        7.5832146175        9.2072525912
O         9.4688927310        7.5669612954        5.2179657068
O         7.5825978547        9.4628280488        0.4080254627
O         9.4631242747        9.4691927796        2.8147397924
O         7.5672536401        7.5819859564        7.6234644571
     192
 i =        8, E =     -5781.7296515054
Ti         0.0022286822        0.0031435880       -0.0000637443
Ti         1.8888422449        1.8889621680        4.8075409780
Ti         0.0015171488        1.8889842872        2.4085881246
Ti         1.8886845446        0.0015216125        7.2062306585
Ti         0.0021520714        3.7782314638        0.0024158822
Ti         1.8890443679       13.2371440527        4.8061169311
Ti        11.3497462413        1.8888481993        2.4095476483
Ti         5.6695770964        0.0014310592        7.2119574387
Ti         1.8886637604        3.7768529148        7.2048591896
Ti         0.0015516955       13.2373049059        2.4110950825
Ti         5.6697325973        1.8888667460        4.8033103175
Ti        11.3481478807        0.0017118548       -0.0012541036
Ti         3.7791017190        0.0015321242       -0.0024708345
Ti        13.2371323492        1.8890286377        4.8089822594
Ti        13.2370382859        0.0015780631        7.2042208931
Ti         3.7768462672        1.8888167937        2.4102738457
Ti         1.8888373318        5.6696959566        4.8117632201
Ti         0.0024957931       11.3472209312        0.0011878014
Ti         0.0014285421        5.6695961953        2.4031346114
Ti         1.8887070599       11.3497151993        7.2053827831
Ti         0.0017702057        7.5682224560        0.0053281854
Ti         1.8888033763        9.4617835332        4.8089604622
Ti         7.5690462305        1.8889338753        2.4124081123
Ti         9.4619898843        0.0014970625        7.2084962016
Ti         1.8886962031        7.5689523484        7.2025216077
Ti         0.0014990542        9.4620660392        2.4065697459
Ti         9.4617806766        1.8888669534        4.8061368069
Ti         7.5681039975        0.0021862253       -0.0053662732
Ti         3.7777760699        3.7781917848       -0.0000830447
Ti        13.2369429523       13.2370949421        4.8075644101
Ti        11.3498609769        5.6697345356        2.4040096501
Ti         5.6695747225       11.3498109873        7.2108546486
Ti        13.2370950343        3.7769361556        7.2030479194
Ti         3.7770258896       13.2373204981        2.4120694787
Ti         5.6696326254        5.6696561573        4.8075368508
Ti        11.3480240217       11.3487410180        0.0000140194
Ti        11.3496659879       13.2373615874        2.4114984699
Ti         5.6695548157        3.7767526502        7.2099381908
Ti         3.7784683051       11.3491533391       -0.0012790878
Ti        13.2370931613        5.6696812895        4.8131578994
Ti         5.6697205783       13.2371823127        4.8019346679
Ti        11.3487982786        3.7786819068        0.0011983788
Ti        13.2370886122       11.3496845895        7.2033151745
Ti         3.7768007595        5.6697059208        2.4050606232
Ti         3.7778804500        7.5681057007        0.0027781983
Ti        13.2371498485        9.4617161533        4.8103717700
Ti         7.5691126981        5.6696057704        2.4075637704
Ti         9.4619510733       11.3497888096        7.2075438349
Ti        13.2371105615        7.5689189916        7.2008293476
Ti         3.7768262275        9.4621355681        2.4084449417
Ti         9.4619334549        5.6696760601        4.8103905648
Ti         7.5684469297       11.3486045213       -0.0041478881
Ti        11.3498191400        9.4621682552        2.4075898241
Ti         5.6695767961        7.5690511307        7.2074737020
Ti         5.6697148200        9.4619146132        4.8046949578
Ti        11.3492297159        7.5677457120        0.0040859330
Ti         9.4619378437        3.7767554000        7.2067479310
Ti         7.5690290175       13.2372984297        2.4142079525
Ti         7.5686938246        3.7772647946       -0.0028595118
Ti         9.4617689184       13.2371812495        4.8047485634
Ti         7.5685753506        7.5688066785       -0.0000119473
Ti         9.4618307821        9.4618842339        4.8075493619
Ti         7.5690880708        9.4620664044        2.4106827981
Ti         9.4619929317        7.5690535313        7.2042979704
O         0.0006523765        0.0013044682        1.9893612582
O         1.8841179253        1.8871618177        6.8013184344
O         0.0016098540        1.8843334193        4.3961542771
O         1.8874177446        0.0001646839        9.2099900986
O         1.8842909450        0.0015780083        5.2189484373
O         0.0002449064        1.8874657032        0.4053516153
O         1.8871894906        1.8839786336        2.8137218973
O         0.0013825219        0.0007262581        7.6256742678
O         0.0007909580        3.7752297238        1.9875096769
O         1.8838709387       13.2369173869        6.8015499427
O        11.3512261234        1.8844168901        4.3959060753
O         5.6721130534        0.0004933784        9.2090384475
O         1.8845516239        3.7756584963        5.2213426981
O         0.0001232605       13.2368455062        0.4040330438
O         5.6718925881        1.8843037483        2.8132677077
O        11.3516715086        0.0006665826        7.6254709484
O         3.7750903418        0.0007188386        7.6275848287
O        13.2369294125        1.8838546118        2.8134797646
O        13.2369299611        0.0001144062        9.2105845160
O         3.7756232072        1.8845952364        4.3936045381
O         1.8843470925        5.6719415889        6.8017220404
O         0.0007526997       11.3517833865        1.9895128370