     192
 i =        1, E =     -5782.6797374850
Ti        -0.0630824805        0.0929386845        0.0659552703
Ti         1.8668944585        1.9238570648        4.8993808655
Ti         0.0470670285        2.0302284944        2.5308931183
Ti         1.8643486057       -0.0468435125        7.1724434199
Ti        -0.0340002725        3.8295378721       -0.0533878408
Ti         1.9499470626       13.1922635471        4.8338468631
Ti        11.2880536477        1.9809155551        2.4509894115
Ti         5.6074849963       -0.0902356935        7.2230962833
Ti         1.9055518349        3.8180408556        7.2357423393
Ti         0.0247546444       13.3476226050        2.4742641286
Ti         5.6781181807        1.8363366363        4.8275567749
Ti        11.3031274019        0.1156154593       -0.0451440121
Ti         3.6767110710        0.0971956253        0.0485424531
Ti        13.1229865540        1.7698346184        4.7043242696
Ti        13.2670405479       -0.0450393302        7.1547914880
Ti         3.7506056273        1.8025720871        2.5222976653
Ti         1.9717734178        5.6387793270        4.8508665797
Ti         0.0008233722       11.5675571266        0.0046034986
Ti        -0.0226071031        5.7226752555        2.4871312537
Ti         1.8981002505       11.3176272069        7.3611949947
Ti         0.0709858722        7.5028225622        0.0529379354
Ti         2.0394039973        9.5182379947        4.9044356304
Ti         7.4987097999        1.9572616551        2.3507878311
Ti         9.4695011441       -0.1314284499        7.2261159889
Ti         1.9465996704        7.5791681554        7.1610107703
Ti         0.1327422023        9.5810779419        2.4760226803
Ti         9.3283883941        1.8086349767        4.7680688646
Ti         7.4642722628       -0.0615329213       -0.0796577150
Ti         3.7292245568        3.7833299838       -0.0066313218
Ti        13.2376033113       13.1246425482        4.7425874798
Ti        11.3745114139        5.7263946066        2.3767136987
Ti         5.6794907973       11.3254644403        7.1523327477
Ti        13.1723935866        3.6800479429        7.2404754511
Ti         3.7724570741       13.1622018965        2.4440491797
Ti         5.6801000309        5.7198460927        4.8434960435
Ti        11.2221613657       11.3901075376        0.1083598865
Ti        11.2850163029       13.3337254360        2.3542219195
Ti         5.6593906728        3.7268906993        7.1288531731
Ti         3.8836005032       11.4219002492        0.0419281119
Ti        13.2880152440        5.5837174814        4.9033924110
Ti         5.7978714045       13.2088397661        4.8102695424
Ti        11.2677103307        3.7900202973       -0.0769305053
Ti        13.0949284442       11.3813834974        7.2646095449
Ti         3.7913766421        5.6086166347        2.3938528843
Ti         3.7990383121        7.5571182190        0.0453503440
Ti        13.3037997360        9.4211841742        4.8373874063
Ti         7.5193889426        5.6774219131        2.3893400508
Ti         9.4265284945       11.1418228638        7.1727587621
Ti        13.3047651430        7.5416284409        7.2317961705
Ti         3.8828657686        9.4424861335        2.3387565996
Ti         9.5213382904        5.5611113284        4.7065419222
Ti         7.5324041735       11.3431333097        0.0707117831
Ti        11.4049616219        9.4480989127        2.4127505947
Ti         5.6603135654        7.6067277047        7.2011979682
Ti         5.7793752865        9.4229221320        4.7421394965
Ti        11.3212547663        7.5746254550        0.0059915015
Ti         9.4277860266        3.6451604538        7.1663172002
Ti         7.5400632320       13.3084203253        2.4061070370
Ti         7.4633548643        3.7980352413       -0.0640175627
Ti         9.5125167019       13.2422017241        4.7815325272
Ti         7.5983926318        7.5332753571       -0.0563123830
Ti         9.5310760131        9.3933088495        4.7597517251
Ti         7.6381397000        9.4167488650        2.3230234276
Ti         9.5157366539        7.3579162345        7.1444366998
O         0.0555290765        0.0829914531        2.0920349965
O         1.6658872672        1.9358482122        6.7383998061
O        -0.0703316919        2.0005179676        4.4149226434
O         1.7983704195        0.1489100851        9.2363658268
O         1.8075561862       -0.0171891250        5.2601715937
O        -0.1516229814        2.0052223386        0.4922568417
O         1.8669645918        2.1777405473        2.8325124797
O        -0.0701392271       -0.0502772875        7.6229124062
O        -0.0293969248        3.9091737813        2.0823253173
O         1.9951397637       13.2697536024        6.8243927526
O        11.2872068936        1.8272720515        4.3153062041
O         5.6316809294       -0.0212212201        9.2671765821
O         2.1128728220        3.7578515865        5.1788996391
O         0.0538268206       13.3688158487        0.4366335809
O         5.6317063507        1.8512613416        2.8365286494
O        11.2855561586        0.0678964322        7.5624633329
O         3.7118300320        0.1189841191        7.6902400270
O        13.1896546887        1.8721097296        2.8305268801
O        13.1744137400       -0.1072321868        9.2174942834
O         3.7110096552        1.6478027340        4.3782279735
O         1.9082480748        5.6231956382        6.7420234007
O         0.0596474941       11.4554741584        1.9199681327
O         0.0844102811        5.7220817844        0.4655029237
O         1.9153477982       11.3170264766        5.2350668317
O         0.1224656356        7.7219938126        1.9532989765
O         2.1612020071        9.4637084265        6.7784489594
O         7.4570388034        1.8626223298        4.3602916951
O         9.4159973822        0.0370033480        9.2006950742
O         1.8221072880        7.5679473148        5.2744127735
O         0.1122811803        9.5672342482        0.2727142346
O         9.3699194121        2.0416627340        2.8404724871
O         7.4837592982       -0.1606601196        7.6993874192
O         3.7495966309        0.0572682362        2.0373184200
O        13.2182766842        1.8491706570        6.7827322833
O         0.0051345003        5.6054769256        4.4887876929
O         1.9282079116       11.3545632017        9.2665538248
O        13.1717842068       -0.0304084740        5.1317540385
O         3.7069728934        1.9544038619        0.4338669672
O         1.9458645144        5.8041509144        2.9113450501
O         0.0965787039       11.4257192738        7.5674030583
O        11.3476337883        2.0060678580        0.2863535111
O         5.8159236578       -0.0857599014        5.2755880470
O         5.5646175606        1.8281055730        6.7849838697
O        11.2695828988        0.1388564975        1.8950152279
O         1.9063916935        3.8351771096        9.2050474520
O        -0.0189911158       13.1540256406        4.4555871740
O         0.0224799918        3.8017108768        7.6770681197
O         1.8857327202       13.2361653449        2.8667747824
O         3.9674735530        3.8372057038        2.0690000641
O        13.1054075071       13.2705580053        6.7319573640
O        11.3723913866        5.6625401182        4.3862260400
O         5.6904715797       11.4715933672        9.2262306626
O        13.1778631769        3.8029757319        5.2192687001
O         3.6385696817       13.3095066644        0.5075094031
O         5.7386091344        5.9135146317        2.7385696577
O        11.3038006065       11.3382029320        7.6544096887
O        11.2510284951       13.2706230131        0.4095891669
O         5.4930591313        3.7200512216        5.1849753910
O         3.7884174689       11.3694487909        7.6796985119
O        13.2778184537        5.9253373856        2.8739004922
O         5.5162889434       13.1995780902        6.7820285276
O        11.5438268311        3.8319438150        1.9193044641
O        13.2342410805       11.4076704898        9.2096501948
O         3.8642222705        5.7141502777        4.4070350969
O         5.7625083240        5.6339340159        6.7344200818
O        11.1220024729       11.4589486105        2.0017450724
O        13.2083758265        3.9105438089        9.1361598555
O         3.7980802782       13.2148936326        4.3901203177
O        11.3584901148        5.7371402083        0.4107309614
O         5.7870424339       11.3033459530        5.2361441478
O         3.7455772929        3.7229142761        7.6482521030
O        13.2123766881       13.2144972023        2.7150845169
O        13.0519391871       11.4088914734        5.1529971765
O         3.7136673689        5.6750439281        0.4289749989
O         5.6956396284       13.1672864157        2.8680773103
O        11.2946073010        3.5630199784        7.5570625755
O         3.9635945970       11.4059632547        1.9660174520
O        13.2137643731        5.6415265027        6.9004617459
O        11.2883262921       13.3503449083        4.3227081567
O         5.6638720257        3.8117322449        9.1417367296
O         3.7864658211        7.6347563286        1.9263597280
O        13.3107317825        9.5852346471        6.7527843796
O         7.5732424144        5.5277232144        4.3207886307
O         9.4245095036       11.3239346606        9.2235909015
O        13.2636014439        7.5873613272        5.4200741634
O         3.8110138884        9.5219713459        0.3600432913
O         9.5542186113        5.5801986788        2.7892170480
O         7.5229690115       11.3479482776        7.5744834081
O        11.3456203513        9.4924369357        0.4082038014
O         5.7309892286        7.5682154196        5.1629190454
O         5.5469877567        9.4184156232        6.7580002399
O        11.2244714690        7.6054312340        2.0188999874
O         9.4347272060        3.9491026355        9.1480089520
O         7.5916711434       13.0441106289        4.4522935371
O         7.5044128550        3.6455017075        7.5500128146
O         9.4299078306       13.4689838211        2.8562871246
O         7.4430093526       -0.0375943642        2.0373727829
O         9.2136034479        1.8077680422        6.7279581931
O         0.0796275406        9.3694595446        4.4348536304
O         1.9271877407        7.5768120187        9.2018334695
O         9.3116157763       -0.0326284121        5.1941392190
O         7.6352276806        1.9045665171        0.4389950851
O         1.9641744446        9.6992672415        2.7723747114
O         0.0421714719        7.5683523208        7.6170407418
O         7.5244052935        3.7975839595        1.9491187303
O         9.5034085448       13.2080631923        6.7435270750
O        11.4423294988        9.2292838820        4.3779248465
O         5.6687050757        7.6981123845        9.1260811296
O         9.4812630701        3.6886416744        5.1827298812
O         7.5679694549       13.2196428521        0.4182026495
O         5.7400979002        9.4005950626        2.7117417459
O        11.3034418661        7.6445311056        7.5954085828
O         3.7906336909        7.3643729340        7.6002299153
O        13.3244391372        9.6162323366        2.8078801645
O        13.2648101221        7.6758107827        9.3268492158
O         3.8516420578        9.4261022732        4.2977424164
O         9.6098602422        5.5295450131        6.7548625281
O         7.6430760847       11.3272617406        1.9611814531
O         7.3430279985        5.6953299296        0.3702425302
O         9.5558330106       11.2283297167        5.1967899533
O         7.8610463967        7.5897805206        1.9244621431
O         9.4487700369        9.4160215175        6.8103629772
O         7.5601708820        9.3776673799        4.3260134095
O         9.4710815984        7.4388702184        9.2194938079
O         9.3544086890        7.4827573934        5.2462865081
O         7.5173926970        9.4669733181        0.3625846722
O         9.5712073106        9.5100302771        2.8707754953
O         7.5968439627        7.5408602437        7.5879698148
     192
 i =        2, E =     -5782.7719686008
Ti        -0.0592755967        0.1158396541        0.0327047613
Ti         1.8564270763        1.9284295669        4.8826856051
Ti         0.0407199959        2.0110093581        2.4894516818
Ti         1.8457689712       -0.0660910151        7.1912499164
Ti        -0.0573322077        3.8296701733       -0.0341617183
Ti         1.9529539093       13.2066083805        4.8396419130
Ti        11.3007682785        1.9582779966        2.4340148098
Ti         5.6005030710       -0.0750665824        7.2139363258
Ti         1.9052640037        3.8053657136        7.2470201118
Ti         0.0083796903       13.3338159625        2.4602312830
Ti         5.6809734159        1.8517483953        4.8127285846
Ti        11.2923686919        0.0933310130       -0.0331479063
Ti         3.6600308371        0.0817198135        0.0342457559
Ti        13.1639150015        1.7917617050        4.7347991234
Ti        13.2654569945       -0.0404300636        7.1775170691
Ti         3.7638387202        1.8318143516        2.5084077050
Ti         1.9636287631        5.6577118110        4.8326673233
Ti        -0.0003507383       11.5571150718       -0.0028450362
Ti        -0.0157579865        5.7105799800        2.4790011593
Ti         1.8786197778       11.3444569905        7.3313875692
Ti         0.0354561817        7.4951268795        0.0324817493
Ti         2.0233110228        9.5197428727        4.8642995809
Ti         7.5007565572        1.9552255380        2.3324403139
Ti         9.4831433653       -0.1123179819        7.2269097857
Ti         1.9385689221        7.5718346529        7.1749539500
Ti         0.1049077915        9.5524609786        2.4866179978
Ti         9.3505604854        1.8212781629        4.7911203225
Ti         7.4668968008       -0.0336684331       -0.0652452321
Ti         3.7395088311        3.7710618460        0.0029096428
Ti        13.2323070288       13.1163825009        4.7779378499
Ti        11.3603674022        5.7141756922        2.3858498458
Ti         5.6737191925       11.3189358317        7.1736700740
Ti        13.1642435360        3.7049803605        7.2313817828
Ti         3.7819416575       13.1931115892        2.4440502858
Ti         5.6984360642        5.6985603624        4.8355118005
Ti        11.2238646358       11.3869794731        0.0820533056
Ti        11.3050991932       13.3130903289        2.3469938694
Ti         5.6661921541        3.7260140943        7.1411540904
Ti         3.8675740569       11.3957866444        0.0218628531
Ti        13.2762493637        5.5922712875        4.8724537420
Ti         5.7719872217       13.2042231897        4.8059513685
Ti        11.2616434123        3.7978444615       -0.0442912776
Ti        13.1238346287       11.3531041193        7.2623498257
Ti         3.8026349491        5.6311715907        2.3931331012
Ti         3.7912721937        7.5814651986        0.0322269520
Ti        13.2860670978        9.4302635502        4.8402046509
Ti         7.4931737644        5.6845420505        2.4119782469
Ti         9.4103275203       11.1772664466        7.1697031695
Ti        13.2976118318        7.5276399913        7.1963320373
Ti         3.8579616879        9.4340142131        2.3518401956
Ti         9.5193096615        5.5731659055        4.7254978896
Ti         7.5655707838       11.3536922747        0.0435441071
Ti        11.3957831916        9.4535915134        2.4347216345
Ti         5.6640858993        7.5822161532        7.2242791031
Ti         5.7699663764        9.4205405641        4.7577477041
Ti        11.3295158723        7.5859588855       -0.0002600043
Ti         9.4364542545        3.6636391462        7.1746541895
Ti         7.5408026607       13.3253710956        2.3894404843
Ti         7.4745926153        3.7977074160       -0.0584102879
Ti         9.4975437120       13.2363566258        4.7876938896
Ti         7.6105623708        7.5327128427       -0.0631009618
Ti         9.5280690867        9.4211054001        4.7776759907
Ti         7.6132193940        9.4154620967        2.3302429464
Ti         9.5180484327        7.3889866623        7.1525218700
O         0.0564652449        0.0644748998        2.0286615285
O         1.7576291316        1.9169919301        6.7671492692
O        -0.0220783246        1.9784106083        4.3932942543
O         1.7970511307        0.1251526461        9.2109839337
O         1.8147170983       -0.0109108938        5.2658345788
O        -0.1178662908        2.0077580481        0.4513751109
O         1.8685330475        2.0929648038        2.8099025574
O        -0.0520643785       -0.0546757531        7.6399160096
O        -0.0613268833        3.8914374300        2.0706926828
O         1.9872496526       13.2439662343        6.8352209826
O        11.2940418002        1.8437148560        4.3431016403
O         5.6038210430        0.0177525000        9.2501759089
O         2.0663801003        3.7793729929        5.1925930111
O         0.0478260043       13.3715494839        0.4317391857
O         5.6341868797        1.9192439372        2.8201497230
O        11.3099217982        0.0766691752        7.5704569122
O         3.7019049504        0.0853876607        7.6673496008
O        13.1904340595        1.8967137163        2.8366307905
O        13.1860210102       -0.0302781625        9.1884758034
O         3.7213747557        1.6763966217        4.3987208512
O         1.8712266547        5.6373421531        6.7707699969
O         0.0231927116       11.4283063469        1.9172068838
O         0.0376343696        5.7101849834        0.4588401176
O         1.8938195257       11.3353638431        5.2405641297
O         0.1262662641        7.6967226049        1.9420123895
O         2.0543370770        9.4674481734        6.7943391323
O         7.4971591299        1.9139991513        4.3809776563
O         9.4183529272        0.0157561036        9.1737086009
O         1.8938924472        7.5665864223        5.2677363930
O         0.0847690158        9.5415643262        0.2715520116
O         9.3822958074        1.9832837993        2.8193026508
O         7.4780146650       -0.1323790586        7.6704245796
O         3.7347528930        0.0627079277        2.0330069477
O        13.2723038690        1.8663328777        6.7900513644
O         0.0126155732        5.5948410899        4.4646778541
O         1.8917689460       11.3512563516        9.2485847421
O        13.2300956007       -0.0051926581        5.1701891648
O         3.7141252314        1.9343141675        0.4423929654
O         1.9422229361        5.7518422767        2.8676511568
O         0.0460537615       11.4320227322        7.5956448642
O        11.3231166692        1.9829208092        0.3120456570
O         5.7884836773       -0.0567717560        5.2545751168
O         5.6316992806        1.8254526160        6.7814918072
O        11.2984006045        0.1288065929        1.9193948414
O         1.8852517083        3.8176576060        9.2364571971
O        -0.0104231071       13.2065682046        4.4142890870
O         0.0013786280        3.7832325436        7.6757306793
O         1.8817899565       13.2385256201        2.8628203178
O         3.9009042197        3.8475793504        2.0587216558
O        13.1563669799       13.2349420196        6.7829986826
O        11.3677053522        5.6666333943        4.4051564992
O         5.6977184589       11.4570786276        9.2268129265
O        13.1570204387        3.8039890408        5.2208681559
O         3.6485967464       13.2942295965        0.4744642579
O         5.7099838534        5.8741007195        2.7644775564
O        11.3193324578       11.3347011811        7.6140798126
O        11.2738444055       13.2734671609        0.3871709814
O         5.5848239547        3.7220792189        5.1859007634
O         3.7908431238       11.3760137152        7.6650355438
O        13.2871314270        5.9037865599        2.8668128283
O         5.5206230160       13.2042879075        6.8097158051
O        11.4788365395        3.8067225193        1.9619124855
O        13.2544495059       11.4309363428        9.2002178741
O         3.8551553954        5.7220553122        4.3997741335
O         5.7530116460        5.6324882717        6.7365341404
O        11.2137800269       11.4101082579        2.0077713452
O        13.2062664684        3.8914206714        9.1488979774
O         3.7838530996       13.2323157366        4.4164968858
O        11.4034521371        5.7426315458        0.4067535920
O         5.7411592826       11.2896797781        5.2467739536
O         3.7568822798        3.7234987318        7.6563196032
O        13.2312858940       13.2670386095        2.7743770414
O        13.0858785488       11.3465119166        5.1587080508
O         3.7412743143        5.6805903702        0.4226998662
O         5.6936515555       13.2322940861        2.8533900465
O        11.3025190276        3.5803809099        7.5779990733
O         3.9230893039       11.3993161222        1.9870720221
O        13.2210552390        5.6546890620        6.8383058618
O        11.3059729853       13.3107803232        4.3420179328
O         5.6583544998        3.7838822859        9.1601762677
O         3.7555301410        7.6101424231        1.9428698817
O        13.3111921517        9.5427514806        6.7826115758
O         7.5840645977        5.5188616569        4.3331658330
O         9.4332381851       11.3106540941        9.1746956678
O        13.2970975724        7.5751642743        5.3413108440
O         3.7969339660        9.5085982712        0.3780509780
O         9.5058898073        5.5782339767        2.7950949180
O         7.5187761822       11.3225796405        7.5639058118
O        11.3615560598        9.4839609393        0.4677115203
O         5.7457802289        7.5508096104        5.1781097985
O         5.5974498644        9.4040855969        6.7714019893
O        11.2988987530        7.6167090076        2.0021599338
O         9.4157355595        3.9308619017        9.1507234736
O         7.5734845618       13.0861933633        4.4087906036
O         7.5209943684        3.6932060921        7.5728816440
O         9.4261736982       13.3781179742        2.8219000774
O         7.4804865007        0.0036414074        2.0354188431
O         9.2808644180        1.8229057952        6.7611600231
O         0.0531224072        9.4347637933        4.4193495773
O         1.9078186760        7.6621968968        9.2136917140
O         9.3539890984       -0.0234519869        5.2035689522
O         7.5642468585        1.9137057028        0.4085836628
O         1.9363024952        9.6358795519        2.7660784411
O         0.0325980058        7.5857282096        7.6155485524
O         7.4791043409        3.8186882488        1.9476994874
O         9.4850199738       13.2153968496        6.7617570671
O        11.4125417371        9.2470874527        4.4037565050
O         5.6724312225        7.6522158959        9.1563224310
O         9.4563332463        3.7122808211        5.1939589289
O         7.5870163346       13.2533915018        0.4284529055
O         5.7304443526        9.4106951251        2.7498273693
O        11.3382719665        7.6269226441        7.6357232253
O         3.7831359980        7.3930075042        7.5971981851
O        13.2911021948        9.6023901313        2.8096786627
O        13.2657752005        7.6614679902        9.2322263754
O         3.8430814709        9.3934212614        4.3207991924
O         9.5413248891        5.5644353494        6.7651891249
O         7.6655202212       11.3302352940        1.9571389927
O         7.4128196258        5.6904568566        0.4015668867
O         9.5571654053       11.2542505599        5.2070997823
O         7.7921874274        7.5595518226        1.9442281973
O         9.4641610873        9.4095144517        6.8368564525
O         7.5815003424        9.3887026093        4.3444558197
O         9.4705219274        7.4967011595        9.1824039900
O         9.4012855796        7.4928541770        5.2307535582
O         7.5316389559        9.4540141766        0.3651257243
O         9.5276389353        9.5094683664        2.8642947063
O         7.5888917592        7.5161178926        7.5931760087
     192
 i =        3, E =     -5782.8089605433
Ti        -0.0487228286        0.1162521807        0.0177218339
Ti         1.8638840747        1.9211187281        4.8713854884
Ti         0.0364654153        2.0066299331        2.4710869310
Ti         1.8508646010       -0.0541924973        7.2007142041
Ti        -0.0668316648        3.8188257398       -0.0302645648
Ti         1.9501004020       13.2227380204        4.8286261655
Ti        11.3234316391        1.9448951087        2.4326038767
Ti         5.6057072251       -0.0523796515        7.2112120233
Ti         1.9010923604        3.7949453307        7.2473295907
Ti         0.0050266324       13.3341054722        2.4458124418
Ti         5.6864769254        1.8597646869        4.8137854038
Ti        11.2855663683        0.0821531824       -0.0277610385
Ti         3.6695313163        0.0798965123        0.0272301869
Ti        13.1817840827        1.8130085819        4.7655184329
Ti        13.2500628152       -0.0292842881        7.1965108911
Ti         3.7722321219        1.8405201059        2.4844710233
Ti         1.9586857177        5.6670192034        4.8266517177
Ti        -0.0138868354       11.5452114346       -0.0113661790
Ti        -0.0095684697        5.7008951198        2.4713419202
Ti         1.8646758283       11.3524323513        7.2988460187
Ti         0.0158325315        7.5037440472        0.0090301463
Ti         2.0033589124        9.5191642532        4.8471414418
Ti         7.5159531380        1.9469086673        2.3336462470
Ti         9.4711022049       -0.0936053332        7.2182367657
Ti         1.9261850927        7.5673479866        7.1768063944
Ti         0.0850895902        9.5301148756        2.4870229656
Ti         9.3657248645        1.8369059431        4.7875929175
Ti         7.4666609839       -0.0096288672       -0.0564584143
Ti         3.7449214635        3.7756419727        0.0119076893
Ti        13.2347245641       13.1404391550        4.7821909722
Ti        11.3629645510        5.7079589054        2.3923277709
Ti         5.6688626113       11.3189346173        7.1896650407
Ti        13.1765197990        3.7205796692        7.2191504769
Ti         3.7795677787       13.2172262028        2.4229007076
Ti         5.7000659100        5.6813241352        4.8400746214
Ti        11.2397205976       11.3878773811        0.0558679637
Ti        11.3232651566       13.2979019746        2.3665627458
Ti         5.6654415965        3.7323971451        7.1577134775
Ti         3.8460709435       11.3895466660        0.0195379639
Ti        13.2711849319        5.5961538291        4.8507395006
Ti         5.7484948482       13.2037429892        4.7970129163
Ti        11.2678159814        3.7964425154       -0.0209965522
Ti        13.1623293081       11.3302964567        7.2721828795
Ti         3.7939369964        5.6310945418        2.3911508056
Ti         3.7791069862        7.5934591726        0.0154764351
Ti        13.2825614318        9.4373622515        4.8391890114
Ti         7.4987203892        5.6905657013        2.4067923482
Ti         9.4173105048       11.2081697216        7.1639984890
Ti        13.2965452188        7.5235647083        7.1830738817
Ti         3.8386483004        9.4326830253        2.3765137872
Ti         9.5017694661        5.5848914813        4.7432552320
Ti         7.5712802451       11.3480866052        0.0268663485
Ti        11.4024682193        9.4550383211        2.4261572180
Ti         5.6717842882        7.5618842289        7.2349287075
Ti         5.7583609754        9.4150985477        4.7762200778
Ti        11.3511368570        7.5908812130       -0.0137129684
Ti         9.4331014199        3.6858600136        7.1832906923
Ti         7.5474487930       13.3308693418        2.3800226149
Ti         7.4822807890        3.8047760541       -0.0491496283
Ti         9.4897312947       13.2303483359        4.7896192074
Ti         7.6115282979        7.5351677852       -0.0618399149
Ti         9.5187586550        9.4296176270        4.7750420709
Ti         7.6084456427        9.4334265947        2.3494682047
Ti         9.5116698594        7.4296006759        7.1626174185
O         0.0460199621        0.0758814447        2.0014020628
O         1.8011914665        1.9142910123        6.7801461226
O         0.0055792169        1.9504441793        4.3964215214
O         1.8153439222        0.1242662685        9.2066312327
O         1.8075489704       -0.0137006050        5.2634889209
O        -0.1087763727        1.9925482608        0.4407690485
O         1.8711479969        2.0281054236        2.7985423438
O        -0.0385934253       -0.0616796056        7.6320951991
O        -0.0895364022        3.8768194320        2.0485163493
O         1.9639423034       13.2318982080        6.8356756588
O        11.2925600697        1.8519064420        4.3716553697
O         5.5908306399        0.0145439330        9.2373657763
O         2.0358374075        3.7847319142        5.2101491131
O         0.0391102236       13.3565170028        0.4213553964
O         5.6448586007        1.9517767415        2.8151807866
O        11.3067807464        0.0595458243        7.5761400105
O         3.7125669023        0.0410399408        7.6618740345
O        13.2040257582        1.8906765688        2.8462733622
O        13.1916256063        0.0304381790        9.1803012677
O         3.7481874498        1.7241296181        4.4046884659
O         1.8574696572        5.6503366368        6.7982938400
O        -0.0162513529       11.4083749601        1.9240759341