     192
 i =        1, E =     -5782.6797374850
Ti        -0.0039255574        0.0147414656       -0.0061530914
Ti        -0.0080393930       -0.0034624123       -0.0160174235
Ti        -0.0063602585        0.0015938113       -0.0151578100
Ti        -0.0066038572        0.0090500093        0.0134264162
Ti        -0.0052823179       -0.0061940957        0.0142731655
Ti         0.0035479051        0.0027176881        0.0026815495
Ti         0.0036657475        0.0030470538       -0.0261022989
Ti         0.0000063057        0.0067304523        0.0044160999
Ti        -0.0002552769       -0.0126937006       -0.0056310747
Ti        -0.0115669496       -0.0035759169        0.0004543958
Ti        -0.0146117286        0.0021824663        0.0002696180
Ti        -0.0048582485       -0.0072415206       -0.0008006957
Ti        -0.0004008326       -0.0051909105       -0.0052305595
Ti         0.0143520330        0.0049399912        0.0229501144
Ti        -0.0141487318        0.0083242954        0.0085266703
Ti         0.0029977043        0.0206667829       -0.0137755880
Ti        -0.0016443053        0.0066749822       -0.0182545036
Ti        -0.0015508816       -0.0009503822       -0.0097193320
Ti         0.0065990859        0.0040580381        0.0043509289
Ti         0.0102239165        0.0072829641       -0.0170182814
Ti        -0.0094539764        0.0072286885       -0.0096970735
Ti        -0.0032281453       -0.0106560313       -0.0316381229
Ti        -0.0018306411       -0.0123467840       -0.0073371600
Ti        -0.0036790830        0.0080493682        0.0006743322
Ti        -0.0011988483       -0.0060198831        0.0095400016
Ti         0.0000822790       -0.0063213430        0.0121815003
Ti        -0.0000134661        0.0012650749        0.0087985418
Ti         0.0142981656        0.0074345115        0.0280084906
Ti         0.0151622091        0.0004001895        0.0057569541
Ti        -0.0105339944        0.0201003078       -0.0079184636
Ti         0.0064931354       -0.0074795459        0.0014002945
Ti        -0.0019682385       -0.0034022917        0.0116824685
Ti         0.0046978398        0.0024256801       -0.0115346079
Ti         0.0053805034        0.0172007696        0.0009952503
Ti         0.0151654782       -0.0087218165       -0.0083288527
Ti         0.0008816057        0.0028961968       -0.0118274075
Ti         0.0008529845        0.0022537284       -0.0018054794
Ti        -0.0034667594        0.0007348601        0.0008919842
Ti        -0.0052920821       -0.0023917437       -0.0160468392
Ti        -0.0107770096        0.0098664232        0.0005885180
Ti        -0.0093227552       -0.0069694340       -0.0061259790
Ti         0.0038768272        0.0135904928        0.0102193124
Ti         0.0078556444        0.0023814044        0.0001630671
Ti         0.0044546334        0.0077585755        0.0058027186
Ti         0.0020780433        0.0101112202       -0.0175769698
Ti         0.0009094302        0.0074517772       -0.0029209186
Ti         0.0027861545        0.0063529377       -0.0023094706
Ti        -0.0077534021        0.0282287559        0.0049394437
Ti        -0.0070236179        0.0000687700        0.0201038369
Ti        -0.0118924270        0.0058077705        0.0005802394
Ti        -0.0032489501        0.0018150351        0.0100743612
Ti         0.0092639473       -0.0000025416       -0.0146778259
Ti         0.0105859240        0.0054228530       -0.0062730271
Ti         0.0058764897       -0.0084017288        0.0053565233
Ti        -0.0126100445        0.0054313564        0.0018059163
Ti         0.0027257450        0.0081348958       -0.0066226965
Ti        -0.0042855544       -0.0022619059       -0.0018691785
Ti         0.0096816958       -0.0072384394       -0.0028521825
Ti         0.0102440449       -0.0026659289        0.0034357001
Ti        -0.0074444922       -0.0083491423        0.0094640134
Ti         0.0015628776        0.0025535563       -0.0047326944
Ti         0.0001934907        0.0008148595        0.0060366565
Ti        -0.0012750409        0.0052657668        0.0043680841
Ti        -0.0111956122        0.0060436093        0.0061751942
O         0.0012755216        0.0015251298       -0.0077585738
O         0.0099316503       -0.0019768989        0.0158370059
O         0.0161100337       -0.0033761578        0.0039009790
O         0.0037167136       -0.0032225494       -0.0047158140
O         0.0008935057        0.0000216596       -0.0064040774
O         0.0055112217       -0.0018619619       -0.0052202906
O         0.0041763876       -0.0111577604       -0.0009022496
O         0.0162733470       -0.0010151451        0.0046678064
O        -0.0030811898       -0.0036906584       -0.0054867437
O        -0.0005662622       -0.0173701116        0.0022689779
O        -0.0129589914       -0.0004298939        0.0173147857
O        -0.0186093980        0.0045691845       -0.0032444905
O        -0.0049034094        0.0104375952        0.0057153721
O         0.0012485775       -0.0030468421        0.0015228332
O         0.0016018917        0.0060181041       -0.0031574139
O         0.0074953467        0.0008274934        0.0022417642
O         0.0006428659       -0.0036402181       -0.0051015386
O        -0.0009776830        0.0030238057       -0.0078863421
O         0.0081573181        0.0085531747       -0.0078938472
O         0.0060773749        0.0007032825        0.0175067759
O        -0.0042550895        0.0095805648        0.0177938241
O        -0.0021076437       -0.0086449950        0.0031816822
O        -0.0061576399       -0.0110945097        0.0000527449
O        -0.0014471287        0.0149344137        0.0035447891
O        -0.0003368397       -0.0048106972        0.0009583929
O        -0.0096090503       -0.0018817225        0.0193036902
O         0.0174789469        0.0044204555        0.0053969590
O         0.0031058585       -0.0018675690       -0.0053896083
O         0.0085644990       -0.0002585680       -0.0060596575
O        -0.0031255781       -0.0040420817       -0.0014186388
O         0.0041524026       -0.0056790536       -0.0100727397
O        -0.0030852323        0.0026079009       -0.0228472051
O        -0.0006937579       -0.0122583909       -0.0006117692
O         0.0054891943        0.0033810316       -0.0037924667
O         0.0111119714       -0.0009179158       -0.0081855532
O        -0.0136246803        0.0002158741        0.0038535406
O         0.0060160345        0.0102286493        0.0055354644
O         0.0005395146       -0.0051123186        0.0059819769
O        -0.0072047922       -0.0059033857       -0.0084906533
O        -0.0251403158        0.0022896269        0.0100631125
O        -0.0029324428       -0.0151366825        0.0072057413
O        -0.0033043951        0.0143927848       -0.0042485940
O         0.0067853695       -0.0019172403        0.0011227814
O         0.0034512019       -0.0008626454        0.0056596459
O        -0.0135408230       -0.0011695215        0.0058374891
O         0.0069146652        0.0054544834       -0.0103052954
O        -0.0080100611       -0.0006035854       -0.0072004527
O         0.0042670197       -0.0007326235        0.0008775868
O        -0.0078939995       -0.0078349451       -0.0060529045
O         0.0052836578       -0.0183681152        0.0042208124
O         0.0039566513       -0.0004057219        0.0036058908
O         0.0015187722       -0.0006919450       -0.0039508013
O        -0.0032915309       -0.0135487829        0.0007365431
O         0.0009559250        0.0005122970       -0.0106406031
O        -0.0150641146       -0.0049260156        0.0042346613
O         0.0013181389       -0.0003867268       -0.0015697918
O         0.0027926886        0.0116799187       -0.0057643629
O         0.0095339874       -0.0032074042        0.0012678094
O         0.0116568799        0.0003027820        0.0006175045
O         0.0036330862       -0.0041024597        0.0010477603
O        -0.0015380437        0.0004815037        0.0071207177
O        -0.0083859836       -0.0065009270        0.0066587240
O         0.0082355718        0.0011306381       -0.0000983939
O        -0.0099599193        0.0000732925       -0.0016946977
O        -0.0022369289        0.0053729672        0.0045013042
O         0.0110296496       -0.0193953560        0.0076116688
O         0.0010080491       -0.0009803536        0.0054877721
O        -0.0062486022        0.0016769651        0.0106228465
O         0.0048195281       -0.0042356738       -0.0016277667
O        -0.0072954723       -0.0050253813       -0.0035026296
O         0.0075403994       -0.0002612459       -0.0016766839
O         0.0055055284        0.0060652815        0.0124735369
O         0.0014720094       -0.0328815913        0.0035848342
O         0.0029400784       -0.0004362393        0.0008758041
O        -0.0025450310        0.0077526804       -0.0023298359
O         0.0056115146        0.0022288880        0.0022224960
O        -0.0029164411       -0.0130346811        0.0104856909
O         0.0004930940        0.0042585103       -0.0061030348
O         0.0209836007       -0.0037411458        0.0056710789
O        -0.0121766397       -0.0021681107        0.0031319158
O        -0.0025724246       -0.0106997877        0.0090611023
O        -0.0002544516       -0.0084092241        0.0099339351
O         0.0021095133       -0.0008346208        0.0039738943
O        -0.0063928768       -0.0015356022       -0.0088329646
O         0.0017882790       -0.0048739549       -0.0327607781
O        -0.0000547120       -0.0042401703        0.0026642521
O        -0.0183467301       -0.0007997243       -0.0012456564
O         0.0063537512       -0.0026390372        0.0022764268
O         0.0035795924       -0.0030596914        0.0116993656
O        -0.0005578410       -0.0013822847        0.0048058136
O         0.0035682347        0.0010253959       -0.0020371876
O         0.0083445992        0.0023363025       -0.0063337048
O        -0.0116226914       -0.0021640981       -0.0024539962
O         0.0028563316        0.0047375463       -0.0079592162
O         0.0068573359        0.0042417682        0.0055916018
O        -0.0096059166       -0.0086181220       -0.0103932472
O         0.0037186537        0.0191585930       -0.0037736504
O         0.0082167991        0.0034492883        0.0077603409
O        -0.0015660192        0.0084551563       -0.0098832060
O         0.0005187832        0.0097531561        0.0003891639
O         0.0047845901        0.0003385540       -0.0002762662
O        -0.0080626878       -0.0033867381       -0.0075137973
O        -0.0023679103       -0.0070396366        0.0023464099
O         0.0008638061        0.0016501849        0.0029878015
O        -0.0040441493        0.0094942504       -0.0017860214
O        -0.0026025339       -0.0062768720        0.0044321999
O        -0.0079093827        0.0025009835        0.0052000998
O        -0.0033990398       -0.0053522475        0.0080610496
O        -0.0025031804        0.0053825973        0.0010395196
O         0.0017396274        0.0130145522        0.0032649810
O         0.0048821919        0.0027281193        0.0050964055
O         0.0232644826       -0.0019026426        0.0109695686
O        -0.0019899354        0.0042309439       -0.0010728169
O        -0.0124819712       -0.0019051866       -0.0003194604
O         0.0064685184       -0.0033161211       -0.0112577412
O        -0.0031609801       -0.0024747614        0.0081554347
O        -0.0072810099        0.0097351046        0.0003193632
O         0.0026186968        0.0002793706        0.0060856431
O         0.0069379363       -0.0013167609        0.0018123040
O        -0.0017514828        0.0070113207        0.0016823608
O        -0.0064829007       -0.0107209742        0.0039364190
O         0.0010955058       -0.0238548072       -0.0017397136
O         0.0228958391        0.0020601803        0.0016851212
O        -0.0077316736        0.0053637432       -0.0076777563
O         0.0041553757       -0.0038415934       -0.0070293907
O         0.0022184669       -0.0105866022        0.0014991532
O        -0.0213886402        0.0015601322       -0.0060066665
O        -0.0025105604       -0.0043518016        0.0035461452
     192
 i =        2, E =     -5782.7719686008
Ti        -0.0023162886        0.0035260345        0.0025973652
Ti         0.0011869043       -0.0036651417       -0.0044763466
Ti        -0.0037042187       -0.0014541337       -0.0114410371
Ti         0.0010162121        0.0168303884        0.0045792066
Ti         0.0025137058       -0.0031288685        0.0031481509
Ti        -0.0037170903        0.0061411082       -0.0048340024
Ti        -0.0006217008        0.0042201704       -0.0063420230
Ti         0.0003409912        0.0071237736        0.0062230450
Ti        -0.0050406610       -0.0085155338       -0.0025446091
Ti        -0.0010208624       -0.0015581834       -0.0035968899
Ti        -0.0073668635       -0.0000159281        0.0022905872
Ti         0.0018595752        0.0011080635       -0.0036364280
Ti         0.0046140736       -0.0039871621       -0.0038313555
Ti         0.0029371740        0.0068999525        0.0151013202
Ti        -0.0103360818        0.0078979373        0.0022266966
Ti        -0.0022800281        0.0142563684       -0.0103862797
Ti         0.0004065993        0.0036312059       -0.0107441640
Ti        -0.0017698088        0.0054174137       -0.0055248786
Ti         0.0092867597        0.0047489156        0.0029528497
Ti         0.0010083592       -0.0032032168       -0.0112401186
Ti        -0.0038606019        0.0073558739       -0.0112531955
Ti        -0.0050227718       -0.0096177144       -0.0107766220
Ti         0.0041114880       -0.0014337023        0.0042697031
Ti        -0.0078985707        0.0087005888       -0.0012750464
Ti        -0.0059805704       -0.0023107671        0.0065656040
Ti        -0.0070857540       -0.0024446585        0.0041140970
Ti         0.0011749148        0.0059604710       -0.0017925864
Ti         0.0001840544        0.0092693279        0.0065331241
Ti         0.0061500000        0.0051261802        0.0063901403
Ti        -0.0011476597        0.0167488556       -0.0038670822
Ti         0.0014885767       -0.0003198884        0.0026065259
Ti        -0.0064836299       -0.0019552372        0.0061160439
Ti         0.0119973611       -0.0005971078       -0.0089797234
Ti        -0.0052381717        0.0112360744       -0.0053569365
Ti         0.0073909321       -0.0037510533       -0.0042005137
Ti         0.0147348617       -0.0067591904       -0.0096655173
Ti         0.0013695951        0.0006658304        0.0066352933
Ti        -0.0021305229        0.0002344634        0.0033566264
Ti        -0.0067145813        0.0061628807       -0.0073894132
Ti        -0.0036435714        0.0096280192       -0.0024501254
Ti        -0.0094900813        0.0007573700        0.0027250248
Ti         0.0049399725        0.0075919824        0.0056668884
Ti         0.0101192818       -0.0009961646        0.0031454939
Ti        -0.0033348688        0.0036499478        0.0029592260
Ti        -0.0013676436       -0.0041966343       -0.0115027164
Ti         0.0000683130       -0.0004003255       -0.0024266246
Ti         0.0111757289        0.0025946568       -0.0070851864
Ti         0.0013957648        0.0129252112       -0.0010500874
Ti        -0.0022397622        0.0066634773        0.0159777063
Ti        -0.0075705093        0.0041837452        0.0030093855
Ti        -0.0077269850        0.0044861395        0.0061512143
Ti        -0.0029576566       -0.0055395392       -0.0009879957
Ti         0.0074713462        0.0020774127       -0.0051883800
Ti         0.0057578102       -0.0082272638       -0.0017128389
Ti        -0.0032354665       -0.0033815612        0.0036033201
Ti         0.0067669912        0.0079165744       -0.0045322483
Ti        -0.0076266393        0.0004685341       -0.0032924770
Ti         0.0088065492       -0.0104106706       -0.0001694258
Ti         0.0036038150        0.0056378681        0.0043438931
Ti        -0.0039252272       -0.0036229626        0.0051065701
Ti        -0.0024175501       -0.0022168719        0.0008955820
Ti        -0.0038010229       -0.0095510349        0.0003277640
Ti         0.0048820738        0.0026857648        0.0053464387
Ti        -0.0090245346        0.0065076057        0.0007989039
O        -0.0012338989        0.0117592656       -0.0007566605
O         0.0015738984        0.0011282261        0.0057080212
O         0.0027714458       -0.0032689155        0.0067063370
O         0.0074588198        0.0012952676        0.0005522065
O        -0.0013534622       -0.0035177042       -0.0044825840
O         0.0001568508       -0.0072934202        0.0039376915
O         0.0020928102       -0.0051864173        0.0000494546
O         0.0076223740       -0.0012090436       -0.0018271758
O        -0.0019718934       -0.0054357735       -0.0038848396
O        -0.0022421502       -0.0120479556       -0.0000666921
O        -0.0057698973       -0.0007405141        0.0089630608
O        -0.0040508946       -0.0026040978       -0.0016902061
O        -0.0016965963        0.0007927134        0.0060540845
O        -0.0006355312       -0.0081574496       -0.0025173701
O         0.0051559371       -0.0000043174       -0.0003630280
O         0.0012990992       -0.0030012796        0.0017826102
O         0.0036096150       -0.0047794516        0.0003215555
O         0.0046467266       -0.0021116300       -0.0050001668
O        -0.0013689472        0.0047462048        0.0001542909
O         0.0075623251        0.0042405600        0.0076446228
O         0.0001446485        0.0052927202        0.0085216393
O        -0.0025103323       -0.0065102024        0.0061371192
O        -0.0012758880       -0.0041914851       -0.0001317624
O        -0.0000975385        0.0072271183        0.0011692631
O        -0.0039596476       -0.0025340371        0.0046610067
O        -0.0031103038        0.0023161051        0.0072143074
O         0.0066492785       -0.0024042628        0.0002842066
O         0.0019672742       -0.0010193114        0.0000870203
O         0.0008953934        0.0041713387       -0.0075153688
O        -0.0066643817       -0.0004197999       -0.0010137084
O         0.0031412642       -0.0017641876       -0.0075839565
O         0.0013719712        0.0009485846       -0.0053599492
O         0.0010477827       -0.0145704523       -0.0010925014
O         0.0003886061        0.0030221658       -0.0025195882
O         0.0088073744       -0.0000344689       -0.0041889300
O        -0.0007971051       -0.0004777139        0.0019125118
O         0.0015731978       -0.0023412459        0.0023063719
O        -0.0003876962        0.0011272911        0.0049673153
O        -0.0091871943       -0.0004984979        0.0001381835
O        -0.0066934641        0.0002116115        0.0038474798
O        -0.0036253660       -0.0086746280        0.0075363719
O        -0.0037250155       -0.0029916031       -0.0036957894
O         0.0012713861        0.0054565369        0.0009967073
O        -0.0003304685       -0.0146408267        0.0021534579
O        -0.0041719499        0.0023168405       -0.0029848581
O        -0.0016859580       -0.0015600383        0.0001355874
O        -0.0023678175       -0.0009708066       -0.0060869433
O         0.0102582994       -0.0017451229        0.0018942052
O        -0.0039500040       -0.0151882866       -0.0048857936
O         0.0040558439       -0.0045762639       -0.0076882444
O         0.0028906445       -0.0006260756       -0.0054558138
O         0.0021066234       -0.0027326583       -0.0017487436
O         0.0015562585       -0.0158197825       -0.0007686740
O         0.0018011329       -0.0001583333       -0.0040693256
O        -0.0097352193       -0.0025031160        0.0032188161
O        -0.0046452774       -0.0003845399        0.0065857774
O         0.0026805541        0.0038922065        0.0041402016
O        -0.0014471138       -0.0000789225        0.0026510301
O         0.0051634361       -0.0046869490        0.0061586930
O        -0.0067436491       -0.0028631624       -0.0000527601
O         0.0024283282       -0.0027830540       -0.0036934799
O        -0.0048334343        0.0074873777       -0.0043055097
O        -0.0113213534       -0.0056383507        0.0044120923
O        -0.0080037735       -0.0036580862        0.0022040388
O        -0.0037525607        0.0032736482        0.0068735490
O         0.0062281437        0.0039519145       -0.0005823680
O        -0.0087495761        0.0017938820        0.0045919310
O         0.0025258186       -0.0003648448        0.0000613126
O        -0.0000891385       -0.0097454018        0.0032775992
O        -0.0038916744        0.0056987386       -0.0050358175
O         0.0044180280        0.0007762841       -0.0027018559
O        -0.0082303084       -0.0004424986        0.0036773337
O         0.0046997288       -0.0045128327        0.0014758441
O         0.0039381900        0.0033417207       -0.0033252518
O        -0.0061801192        0.0030685911       -0.0001635066
O         0.0009935946        0.0031839846        0.0047833206
O        -0.0028006157       -0.0089793037        0.0065025452
O        -0.0001775495       -0.0026300469        0.0029026120
O         0.0094180927       -0.0032596285        0.0002300659
O        -0.0079272675       -0.0017661717       -0.0014454658
O         0.0022422428       -0.0003780450        0.0029343918
O        -0.0017066607       -0.0102718059        0.0039032939
O        -0.0040487886        0.0026206661        0.0058816787
O        -0.0043477773        0.0003792575        0.0005269087
O         0.0015499910       -0.0004583858       -0.0191708172
O         0.0018294382       -0.0011610151        0.0033324127
O         0.0036758412        0.0028969710       -0.0027406281
O         0.0108716837        0.0000761637        0.0041331431
O        -0.0007851983        0.0054779361       -0.0051474902
O         0.0006216890        0.0009583449        0.0048606389
O        -0.0009127372        0.0046390686        0.0007969601
O         0.0004771018       -0.0113399747        0.0020569816
O         0.0021560972       -0.0029490998        0.0019295593
O         0.0072442892        0.0039227649       -0.0010763989
O         0.0027077009        0.0026118358        0.0014618257
O         0.0028528028       -0.0033871360       -0.0059050779
O        -0.0005839753        0.0107504494       -0.0052681614
O         0.0039857018       -0.0000406001        0.0017731800
O         0.0076244776        0.0012681430       -0.0072746978
O         0.0006992454        0.0007751436       -0.0022037607
O         0.0008682040       -0.0057948089       -0.0025794368
O         0.0000144928       -0.0063148069       -0.0039174284
O         0.0089810699       -0.0028566135        0.0056405180
O         0.0018396692       -0.0031496429        0.0005928846
O        -0.0006113184       -0.0034560261       -0.0008426170
O        -0.0028241125       -0.0074365424       -0.0012430645
O        -0.0029430574        0.0053034124        0.0035701196
O        -0.0039386451       -0.0009493967        0.0023084606
O         0.0037056345       -0.0008437098        0.0035776327
O        -0.0002212419       -0.0007785960       -0.0015385261
O         0.0002214650        0.0014220478       -0.0012128498
O         0.0137731514       -0.0043373889       -0.0036419194
O        -0.0001787254        0.0032381445        0.0042679605
O        -0.0034609380       -0.0022966539        0.0012940913
O         0.0034878972       -0.0000845229       -0.0003067488
O        -0.0062293674        0.0040247736        0.0065290515
O        -0.0010456035        0.0064484725        0.0018356515
O        -0.0042137200        0.0035614666       -0.0021844033
O         0.0028620572        0.0008098262       -0.0068949350
O        -0.0037651967        0.0102306035        0.0007378326
O        -0.0038711979        0.0028866234        0.0006326096
O        -0.0002947659       -0.0088768647       -0.0062601781
O         0.0102184214        0.0038308175        0.0013248738
O        -0.0013068621        0.0017639775        0.0015728921
O         0.0036946393        0.0000825939       -0.0034582347
O         0.0002026539       -0.0004710160        0.0011158165
O        -0.0081309372        0.0002313147       -0.0027244718
O         0.0001148647       -0.0003375370        0.0032550628
     192
 i =        3, E =     -5782.8089605433
Ti        -0.0022759422        0.0008763419        0.0025195646
Ti         0.0036150137       -0.0015174124       -0.0023974594
Ti        -0.0031462674       -0.0042540305       -0.0065283463
Ti         0.0003832584        0.0115768377        0.0009125712
Ti         0.0035805038        0.0014412577        0.0000078551
Ti        -0.0049908719        0.0039203211       -0.0038315328
Ti        -0.0032425438        0.0008160626       -0.0021778014
Ti         0.0001341566        0.0009668164        0.0035203493
Ti        -0.0042331883       -0.0029795419       -0.0014339918
Ti         0.0014912457       -0.0036092969       -0.0024109735
Ti        -0.0065302051       -0.0018923361       -0.0002708479
Ti         0.0018850616        0.0004081730       -0.0005836828
Ti         0.0056992617       -0.0057864774       -0.0035380881
Ti         0.0007946937        0.0063669394        0.0084620825
Ti        -0.0044431603        0.0013934905       -0.0017424441
Ti        -0.0014075616        0.0113750232       -0.0042673101
Ti        -0.0003238866        0.0016796377       -0.0044051194
Ti         0.0013326725        0.0054832989        0.0007551434
Ti         0.0084513423        0.0071752428       -0.0011675527
Ti         0.0024631904       -0.0050641505       -0.0057394635
Ti         0.0017913675       -0.0000748389       -0.0066439629
Ti        -0.0044182747       -0.0073802817       -0.0029252350
Ti         0.0044076788        0.0025208005        0.0053344887
Ti        -0.0083155267        0.0068960803       -0.0022481738
Ti        -0.0041895946       -0.0009349613        0.0047464331
Ti        -0.0076202326        0.0001522234       -0.0001790016
Ti         0.0044730016        0.0033513449       -0.0011171147
Ti        -0.0012537793        0.0045463460        0.0007440895
Ti         0.0020264513        0.0069830786        0.0029948671
Ti         0.0026147377        0.0084418156        0.0044119324
Ti        -0.0012065116        0.0026046207        0.0026916915
Ti        -0.0051647615       -0.0001103189        0.0028050711
Ti         0.0080507562        0.0006751737       -0.0040934479
Ti        -0.0046214050        0.0035296636       -0.0028886170
Ti         0.0034921574       -0.0017148854       -0.0063374070
Ti         0.0144586284       -0.0058822055       -0.0058322288
Ti        -0.0001650911       -0.0000683625        0.0028212745
Ti        -0.0033723354       -0.0001215043        0.0049084178
Ti        -0.0054945926        0.0040814677       -0.0038635361
Ti        -0.0023344570        0.0104602779       -0.0021190241
Ti        -0.0080284829        0.0020388738        0.0053743215
Ti         0.0035376540        0.0065748783        0.0005239370
Ti         0.0054356117        0.0017916457       -0.0049017128
Ti        -0.0011935395        0.0054591480        0.0014898665
Ti         0.0005370068       -0.0040012798       -0.0059178106
Ti        -0.0043777383       -0.0018088779       -0.0018652484
Ti         0.0081123022        0.0024152595       -0.0046847892
Ti         0.0029231135        0.0076718814       -0.0008316945
Ti        -0.0015329002        0.0072667031        0.0062070742
Ti        -0.0023972264        0.0029803561       -0.0005876868
Ti        -0.0039414453        0.0067140044        0.0036926099
Ti        -0.0053557516       -0.0048916586        0.0020933088
Ti         0.0024010677        0.0012259433       -0.0021117250
Ti         0.0019433129       -0.0034919880       -0.0012329760
Ti        -0.0002510838       -0.0028855684        0.0029128710
Ti         0.0024965338        0.0044943862       -0.0011590873
Ti        -0.0023939887        0.0011422676       -0.0016180425
Ti         0.0062409910       -0.0118883180        0.0001790901
Ti         0.0021372124        0.0050767775        0.0041476476
Ti        -0.0040915747       -0.0017924109        0.0024024442
Ti        -0.0035858538        0.0012404733        0.0041391867
Ti        -0.0022761929       -0.0096012272        0.0011072530
Ti         0.0037029197        0.0009213742        0.0022310415
Ti        -0.0045978194        0.0050003606       -0.0009408643
O        -0.0007744269        0.0028971472        0.0022095931
O         0.0029478259       -0.0026362096        0.0044294182
O        -0.0045673176       -0.0000122065        0.0038740318
O         0.0018736980        0.0020057499        0.0013636342
O         0.0020562840        0.0002499767       -0.0028011256
O         0.0010358213       -0.0037629433        0.0026813771
O         0.0028575305       -0.0018708055        0.0034833413
O         0.0047389455        0.0006329086       -0.0006416794
O         0.0028933555       -0.0056352381       -0.0012010657
O        -0.0028595323       -0.0041373898       -0.0009148748
O         0.0017077809        0.0001132154        0.0030556938
O         0.0031199843       -0.0010368095       -0.0009374749
O        -0.0039978802       -0.0012306659        0.0029337561
O        -0.0018948666       -0.0025682633       -0.0026657498
O         0.0035651182       -0.0044181326        0.0009688660
O         0.0033940203       -0.0011167329        0.0013548150
O         0.0007549930        0.0015686873       -0.0006724480
O         0.0037397555       -0.0008250793       -0.0023835750
O        -0.0029334162        0.0007918748        0.0009450756
O         0.0043600933        0.0035558793        0.0028545610
O         0.0012954332        0.0011231360        0.0033470288
O         0.0036278132       -0.0021159248        0.0046931765