 DBCSR| CPU Multiplication driver                                           XSMM (U)
 DBCSR| Multrec recursion limit                                              512 (U)
 DBCSR| Multiplication stack size                                           1000 (D)
 DBCSR| Maximum elements for images                                    UNLIMITED (U)
 DBCSR| Multiplicative factor virtual images                                   1 (U)
 DBCSR| Use multiplication densification                                       T (D)
 DBCSR| Multiplication size stacks                                             3 (U)
 DBCSR| Use memory pool for CPU allocation                                     F (U)
 DBCSR| Number of 3D layers                                               SINGLE (U)
 DBCSR| Use MPI memory allocation                                              F (U)
 DBCSR| Use RMA algorithm                                                      F (U)
 DBCSR| Use Communication thread                                               T (U)
 DBCSR| Communication thread load                                             87 (D)
 DBCSR| MPI: My process id                                                     0
 DBCSR| MPI: Number of processes                                             128
 DBCSR| OMP: Current number of threads                                         1
 DBCSR| OMP: Max number of threads                                             1
 DBCSR| Split modifier for TAS multiplication algorithm                  1.0E+00 (U)


  **** **** ******  **  PROGRAM STARTED AT               2025-06-16 16:03:04.348
 ***** ** ***  *** **   PROGRAM STARTED ON                             nid003483
 **    ****   ******    PROGRAM STARTED BY                                cahart
 ***** **    ** ** **   PROGRAM PROCESS ID                                123562
  **** **  *******  **  PROGRAM STARTED IN /mnt/lustre/a2fs-work2/work/e05/e05/c
                                           ahart/postdoc2/work/group/tio2/anatas
                                           e/cell-441/geo-opt/mp-390/hole/from-n
                                           eutral/pbe-u-o/u-7.5

 CP2K| version string:                                       CP2K version 2024.3
 CP2K| source code revision number:                                  git:6712648
 CP2K| cp2kflags: omp libint fftw3 libxc libgrpp elpa parallel scalapack cosma x
 CP2K|            smm plumed2 spglib mkl sirius libvori libbqb libvdwxc hdf5
 CP2K| is freely available from                            https://www.cp2k.org/
 CP2K| Program compiled at                       Thu 12 Sep 2024 10:20:47 AM BST
 CP2K| Program compiled on                                                  ln04
 CP2K| Program compiled for                                                local
 CP2K| Data directory path    /mnt/lustre/a2fs-work1/work/y07/shared/apps/core/c
 CP2K| Input file name                                                 input.inp

 GLOBAL| Force Environment number                                              1
 GLOBAL| Basis set file name                                        BASIS_MOLOPT
 GLOBAL| Potential file name                                      GTH_POTENTIALS
 GLOBAL| MM Potential file name                                     MM_POTENTIAL
 GLOBAL| Coordinate file name                                         system.xyz
 GLOBAL| Method name                                                        CP2K
 GLOBAL| Project name                                                       tio2
 GLOBAL| Run type                                                        GEO_OPT
 GLOBAL| FFT library                                                       FFTW3
 GLOBAL| Diagonalization library                                            ELPA
 GLOBAL| DGEMM library                                                      BLAS
 GLOBAL| Minimum number of eigenvectors for ELPA usage                        16
 GLOBAL| Orthonormality check for eigenvectors                          DISABLED
 GLOBAL| Matrix multiplication library                                     COSMA
 GLOBAL| All-to-all communication in single precision                          F
 GLOBAL| FFTs using library dependent lengths                                  F
 GLOBAL| Grid backend                                                       AUTO
 GLOBAL| Global print level                                               MEDIUM
 GLOBAL| MPI I/O enabled                                                       T
 GLOBAL| Total number of message passing processes                           128
 GLOBAL| Number of threads for this process                                    1
 GLOBAL| This output is from process                                           0
 GLOBAL| Stack size for threads created by OpenMP (OMP_STACKSIZE)        default
 GLOBAL| CPU model name                          AMD EPYC 7742 64-Core Processor
 GLOBAL| CPUID                                                              1002

 MEMORY| system memory details [Kb]
 MEMORY|                        rank 0           min           max       average
 MEMORY| MemTotal            263341976     263341976     263341976     263341976
 MEMORY| MemFree             233919288     233919288     233921052     233920199
 MEMORY| Buffers                     0             0             0             0
 MEMORY| Cached                2358472       2356168       2358472       2357305
 MEMORY| Slab                  6062016       6061772       6062016       6061888
 MEMORY| SReclaimable           907692        907648        907692        907668
 MEMORY| MemLikelyFree       237185452     237184868     237186208     237185173


 *** Fundamental physical constants (SI units) ***

 *** Literature: B. J. Mohr and B. N. Taylor,
 ***             CODATA recommended values of the fundamental physical
 ***             constants: 2006, Web Version 5.1
 ***             http://physics.nist.gov/constants

 Speed of light in vacuum [m/s]                             2.99792458000000E+08
 Magnetic constant or permeability of vacuum [N/A**2]       1.25663706143592E-06
 Electric constant or permittivity of vacuum [F/m]          8.85418781762039E-12
 Planck constant (h) [J*s]                                  6.62606896000000E-34
 Planck constant (h-bar) [J*s]                              1.05457162825177E-34
 Elementary charge [C]                                      1.60217648700000E-19
 Electron mass [kg]                                         9.10938215000000E-31
 Electron g factor [ ]                                     -2.00231930436220E+00
 Proton mass [kg]                                           1.67262163700000E-27
 Fine-structure constant                                    7.29735253760000E-03
 Rydberg constant [1/m]                                     1.09737315685270E+07
 Avogadro constant [1/mol]                                  6.02214179000000E+23
 Boltzmann constant [J/K]                                   1.38065040000000E-23
 Atomic mass unit [kg]                                      1.66053878200000E-27
 Bohr radius [m]                                            5.29177208590000E-11

 *** Conversion factors ***

 [u] -> [a.u.]                                              1.82288848426455E+03
 [Angstrom] -> [Bohr] = [a.u.]                              1.88972613288564E+00
 [a.u.] = [Bohr] -> [Angstrom]                              5.29177208590000E-01
 [a.u.] -> [s]                                              2.41888432650478E-17
 [a.u.] -> [fs]                                             2.41888432650478E-02
 [a.u.] -> [J]                                              4.35974393937059E-18
 [a.u.] -> [N]                                              8.23872205491840E-08
 [a.u.] -> [K]                                              3.15774647902944E+05
 [a.u.] -> [kJ/mol]                                         2.62549961709828E+03
 [a.u.] -> [kcal/mol]                                       6.27509468713739E+02
 [a.u.] -> [Pa]                                             2.94210107994716E+13
 [a.u.] -> [bar]                                            2.94210107994716E+08
 [a.u.] -> [atm]                                            2.90362800883016E+08
 [a.u.] -> [eV]                                             2.72113838565563E+01
 [a.u.] -> [Hz]                                             6.57968392072181E+15
 [a.u.] -> [1/cm] (wave numbers)                            2.19474631370540E+05
 [a.u./Bohr**2] -> [1/cm]                                   5.14048714338585E+03
 

 CELL_TOP| Volume [angstrom^3]:                                      2198.132028
 CELL_TOP| Vector a [angstrom    15.120     0.000     0.000   |a| =    15.120000
 CELL_TOP| Vector b [angstrom     0.000    15.120     0.000   |b| =    15.120000
 CELL_TOP| Vector c [angstrom     0.000     0.000     9.615   |c| =     9.615020
 CELL_TOP| Angle (b,c), alpha [degree]:                                90.000000
 CELL_TOP| Angle (a,c), beta  [degree]:                                90.000000
 CELL_TOP| Angle (a,b), gamma [degree]:                                90.000000
 CELL_TOP| Requested initial symmetry:                       MONOCLINIC_GAMMA_AB
 CELL_TOP| Numerically orthorhombic:                                         YES
 CELL_TOP| Periodicity                                                       XYZ

 *** WARNING in atoms_input.F:123 :: Overwriting coordinates. Active    ***
 *** coordinates read from &COORD section. Active coordinates READ from ***
 *** &COORD section                                                     ***


 GENERATE|  Preliminary Number of Bonds generated:                             0
 GENERATE|  Achieved consistency in connectivity generation.

 CELL| Volume [angstrom^3]:                                          2198.132028
 CELL| Vector a [angstrom]:      15.120     0.000     0.000   |a| =    15.120000
 CELL| Vector b [angstrom]:       0.000    15.120     0.000   |b| =    15.120000
 CELL| Vector c [angstrom]:       0.000     0.000     9.615   |c| =     9.615020
 CELL| Angle (b,c), alpha [degree]:                                    90.000000
 CELL| Angle (a,c), beta  [degree]:                                    90.000000
 CELL| Angle (a,b), gamma [degree]:                                    90.000000
 CELL| Requested initial symmetry:                           MONOCLINIC_GAMMA_AB
 CELL| Numerically orthorhombic:                                             YES
 CELL| Periodicity                                                           XYZ

 CELL_REF| Volume [angstrom^3]:                                      2198.132028
 CELL_REF| Vector a [angstrom    15.120     0.000     0.000   |a| =    15.120000
 CELL_REF| Vector b [angstrom     0.000    15.120     0.000   |b| =    15.120000
 CELL_REF| Vector c [angstrom     0.000     0.000     9.615   |c| =     9.615020
 CELL_REF| Angle (b,c), alpha [degree]:                                90.000000
 CELL_REF| Angle (a,c), beta  [degree]:                                90.000000
 CELL_REF| Angle (a,b), gamma [degree]:                                90.000000
 CELL_REF| Requested initial symmetry:                       MONOCLINIC_GAMMA_AB
 CELL_REF| Numerically orthorhombic:                                         YES
 CELL_REF| Periodicity                                                       XYZ

 *******************************************************************************
 *******************************************************************************
 **                                                                           **
 **     #####                         ##              ##                      **
 **    ##   ##            ##          ##              ##                      **
 **   ##     ##                       ##            ######                    **
 **   ##     ##  ##   ##  ##   #####  ##  ##   ####   ##    #####    #####    **
 **   ##     ##  ##   ##  ##  ##      ## ##   ##      ##   ##   ##  ##   ##   **
 **   ##  ## ##  ##   ##  ##  ##      ####     ###    ##   ######   ######    **
 **    ##  ###   ##   ##  ##  ##      ## ##      ##   ##   ##       ##        **
 **     #######   #####   ##   #####  ##  ##  ####    ##    #####   ##        **
 **           ##                                                    ##        **
 **                                                                           **
 **                                                ... make the atoms dance   **
 **                                                                           **
 **            Copyright (C) by CP2K developers group (2000-2024)             **
 **                      J. Chem. Phys. 152, 194103 (2020)                    **
 **                                                                           **
 *******************************************************************************

 DFT| Spin unrestricted (spin-polarized) Kohn-Sham calculation               UKS
 DFT| Multiplicity                                                             2
 DFT| Number of spin states                                                    2
 DFT| Charge                                                                   1
 DFT| Self-interaction correction (SIC)                                       NO
 DFT| Cutoffs: density                                              1.000000E-10
 DFT|          gradient                                             1.000000E-10
 DFT|          tau                                                  1.000000E-10
 DFT|          cutoff_smoothing_range                               0.000000E+00
 DFT| XC density smoothing                                                  NONE
 DFT| XC derivatives                                                          PW

 DFT+U| Method                                                          MULLIKEN
 DFT+U| Check atomic kind information for details

 FUNCTIONAL| PBE:
 FUNCTIONAL| J.P.Perdew, K.Burke, M.Ernzerhof, Phys. Rev. Letter, vol. 77, n 18,
 FUNCTIONAL|  pp. 3865-3868, (1996) {spin polarized}                            


 QS| Method:                                                                 GPW
 QS| Density plane wave grid type                        NON-SPHERICAL FULLSPACE
 QS| Number of grid levels:                                                    4
 QS| Density cutoff [a.u.]:                                                300.0
 QS| Multi grid cutoff [a.u.]: 1) grid level                               300.0
 QS|                           2) grid level                               100.0
 QS|                           3) grid level                                33.3
 QS|                           4) grid level                                11.1
 QS| Grid level progression factor:                                          3.0
 QS| Relative density cutoff [a.u.]:                                        20.0
 QS| Interaction thresholds: eps_pgf_orb:                                1.0E-06
 QS|                         eps_filter_matrix:                          0.0E+00
 QS|                         eps_core_charge:                            1.0E-14
 QS|                         eps_rho_gspace:                             1.0E-12
 QS|                         eps_rho_rspace:                             1.0E-12
 QS|                         eps_gvg_rspace:                             1.0E-06
 QS|                         eps_ppl:                                    1.0E-02
 QS|                         eps_ppnl:                                   1.0E-08


 ATOMIC KIND INFORMATION

  1. Atomic kind: Ti                                    Number of atoms:      64

     Orbital Basis Set                                    DZVP-MOLOPT-SR-GTH-q12

       Number of orbital shell sets:                                           1
       Number of orbital shells:                                               8
       Number of primitive Cartesian functions:                                6
       Number of Cartesian basis functions:                                   31
       Number of spherical basis functions:                                   26
       Norm type:                                                              2

       Normalised Cartesian orbitals:

                        Set   Shell   Orbital            Exponent    Coefficient

                          1       1    2s                7.884570       0.015554
                                                         3.894698       0.963603
                                                         1.513589      -0.631435
                                                         0.596768      -0.343022
                                                         0.222222      -0.006534
                                                         0.077078       0.007652

                          1       2    3s                7.884570      -0.009340
                                                         3.894698       0.212624
                                                         1.513589      -0.258368
                                                         0.596768      -0.226206
                                                         0.222222       0.039438
                                                         0.077078       0.107179

                          1       3    4s                7.884570       0.276563
                                                         3.894698       0.105452
                                                         1.513589       0.085149
                                                         0.596768       0.882541
                                                         0.222222      -0.696223
                                                         0.077078       0.156638

                          1       4    3px               7.884570      -2.034794
                                                         3.894698       0.782008
                                                         1.513589       1.253903
                                                         0.596768       0.347823
                                                         0.222222       0.016778
                                                         0.077078      -0.000433
                          1       4    3py               7.884570      -2.034794
                                                         3.894698       0.782008
                                                         1.513589       1.253903
                                                         0.596768       0.347823
                                                         0.222222       0.016778
                                                         0.077078      -0.000433
                          1       4    3pz               7.884570      -2.034794
                                                         3.894698       0.782008
                                                         1.513589       1.253903
                                                         0.596768       0.347823
                                                         0.222222       0.016778
                                                         0.077078      -0.000433

                          1       5    4px               7.884570       0.376572
                                                         3.894698      -0.182875
                                                         1.513589      -0.474776
                                                         0.596768      -0.081757
                                                         0.222222       0.064432
                                                         0.077078       0.047279
                          1       5    4py               7.884570       0.376572
                                                         3.894698      -0.182875
                                                         1.513589      -0.474776
                                                         0.596768      -0.081757
                                                         0.222222       0.064432
                                                         0.077078       0.047279
                          1       5    4pz               7.884570       0.376572
                                                         3.894698      -0.182875
                                                         1.513589      -0.474776
                                                         0.596768      -0.081757
                                                         0.222222       0.064432
                                                         0.077078       0.047279

                          1       6    4dx2              7.884570       3.047350
                                                         3.894698       3.289529
                                                         1.513589       1.060616
                                                         0.596768       0.249930
                                                         0.222222       0.038806
                                                         0.077078       0.002319
                          1       6    4dxy              7.884570       5.278165
                                                         3.894698       5.697631
                                                         1.513589       1.837041
                                                         0.596768       0.432892
                                                         0.222222       0.067214
                                                         0.077078       0.004017
                          1       6    4dxz              7.884570       5.278165
                                                         3.894698       5.697631
                                                         1.513589       1.837041
                                                         0.596768       0.432892
                                                         0.222222       0.067214
                                                         0.077078       0.004017
                          1       6    4dy2              7.884570       3.047350
                                                         3.894698       3.289529
                                                         1.513589       1.060616
                                                         0.596768       0.249930
                                                         0.222222       0.038806
                                                         0.077078       0.002319
                          1       6    4dyz              7.884570       5.278165
                                                         3.894698       5.697631
                                                         1.513589       1.837041
                                                         0.596768       0.432892
                                                         0.222222       0.067214
                                                         0.077078       0.004017
                          1       6    4dz2              7.884570       3.047350
                                                         3.894698       3.289529
                                                         1.513589       1.060616
                                                         0.596768       0.249930
                                                         0.222222       0.038806
                                                         0.077078       0.002319

                          1       7    5dx2              7.884570      -2.119015
                                                         3.894698      -1.237751
                                                         1.513589      -0.746777
                                                         0.596768      -0.071514
                                                         0.222222       0.004086
                                                         0.077078       0.017595
                          1       7    5dxy              7.884570      -3.670241
                                                         3.894698      -2.143848
                                                         1.513589      -1.293455
                                                         0.596768      -0.123865
                                                         0.222222       0.007077
                                                         0.077078       0.030475
                          1       7    5dxz              7.884570      -3.670241
                                                         3.894698      -2.143848
                                                         1.513589      -1.293455
                                                         0.596768      -0.123865
                                                         0.222222       0.007077
                                                         0.077078       0.030475
                          1       7    5dy2              7.884570      -2.119015
                                                         3.894698      -1.237751
                                                         1.513589      -0.746777
                                                         0.596768      -0.071514
                                                         0.222222       0.004086
                                                         0.077078       0.017595
                          1       7    5dyz              7.884570      -3.670241
                                                         3.894698      -2.143848
                                                         1.513589      -1.293455
                                                         0.596768      -0.123865
                                                         0.222222       0.007077
                                                         0.077078       0.030475
                          1       7    5dz2              7.884570      -2.119015
                                                         3.894698      -1.237751
                                                         1.513589      -0.746777
                                                         0.596768      -0.071514
                                                         0.222222       0.004086
                                                         0.077078       0.017595

                          1       8    5fx3              7.884570      -0.342058
                                                         3.894698       0.375798
                                                         1.513589      -0.706469
                                                         0.596768      -0.229994
                                                         0.222222      -0.012723
                                                         0.077078       0.003932
                          1       8    5fx2y             7.884570      -0.764866
                                                         3.894698       0.840310
                                                         1.513589      -1.579712
                                                         0.596768      -0.514282
                                                         0.222222      -0.028450
                                                         0.077078       0.008792
                          1       8    5fx2z             7.884570      -0.764866
                                                         3.894698       0.840310
                                                         1.513589      -1.579712
                                                         0.596768      -0.514282
                                                         0.222222      -0.028450
                                                         0.077078       0.008792
                          1       8    5fxy2             7.884570      -0.764866
                                                         3.894698       0.840310
                                                         1.513589      -1.579712
                                                         0.596768      -0.514282
                                                         0.222222      -0.028450
                                                         0.077078       0.008792
                          1       8    5fxyz             7.884570      -1.324787
                                                         3.894698       1.455460
                                                         1.513589      -2.736142
                                                         0.596768      -0.890763
                                                         0.222222      -0.049276
                                                         0.077078       0.015229
                          1       8    5fxz2             7.884570      -0.764866
                                                         3.894698       0.840310
                                                         1.513589      -1.579712
                                                         0.596768      -0.514282
                                                         0.222222      -0.028450
                                                         0.077078       0.008792
                          1       8    5fy3              7.884570      -0.342058
                                                         3.894698       0.375798
                                                         1.513589      -0.706469
                                                         0.596768      -0.229994
                                                         0.222222      -0.012723
                                                         0.077078       0.003932
                          1       8    5fy2z             7.884570      -0.764866
                                                         3.894698       0.840310
                                                         1.513589      -1.579712
                                                         0.596768      -0.514282
                                                         0.222222      -0.028450
                                                         0.077078       0.008792
                          1       8    5fyz2             7.884570      -0.764866
                                                         3.894698       0.840310
                                                         1.513589      -1.579712
                                                         0.596768      -0.514282
                                                         0.222222      -0.028450
                                                         0.077078       0.008792
                          1       8    5fz3              7.884570      -0.342058
                                                         3.894698       0.375798
                                                         1.513589      -0.706469
                                                         0.596768      -0.229994
                                                         0.222222      -0.012723
                                                         0.077078       0.003932

       Atomic covalent radius [Angstrom]:                                  1.320

       Atomic van der Waals radius [Angstrom]:                             1.760

     GTH Potential information for                                   GTH-PBE-q12

       Description:                       Goedecker-Teter-Hutter pseudopotential
                                           Goedecker et al., PRB 54, 1703 (1996)
                                          Hartwigsen et al., PRB 58, 3641 (1998)
                                                      Krack, TCA 114, 145 (2005)

       Gaussian exponent of the core charge distribution:               3.462604
       Electronic configuration (s p d ...):                           4   6   2

       Parameters of the local part of the GTH pseudopotential:

                          rloc        C1          C2          C3          C4
                        0.380000    8.711442   -0.700287

       Parameters of the non-local part of the GTH pseudopotential:

                   l      r(l)      h(i,j,l)

                   0    0.337771    2.575264    3.692971
                                    3.692971   -4.767605
                   1    0.242531   -4.630541    8.870875
                                    8.870875  -10.496161
                   2    0.243317   -9.406653

  2. Atomic kind: O                                     Number of atoms:     128

     Orbital Basis Set                                     DZVP-MOLOPT-SR-GTH-q6

       Number of orbital shell sets:                                           1
       Number of orbital shells:                                               5
       Number of primitive Cartesian functions:                                5
       Number of Cartesian basis functions:                                   14
       Number of spherical basis functions:                                   13
       Norm type:                                                              2

       Normalised Cartesian orbitals:

                        Set   Shell   Orbital            Exponent    Coefficient

                          1       1    2s               10.389228       0.396646
                                                         3.849621       0.208811
                                                         1.388401      -0.301641
                                                         0.496955      -0.274061
                                                         0.162492      -0.033677

                          1       2    3s               10.389228       0.303673
                                                         3.849621       0.240943
                                                         1.388401      -0.313066
                                                         0.496955      -0.043055
                                                         0.162492       0.213991

                          1       3    3px              10.389228      -1.530415
                                                         3.849621      -1.371928
                                                         1.388401      -0.761951
                                                         0.496955      -0.253695
                                                         0.162492      -0.035541
                          1       3    3py              10.389228      -1.530415
                                                         3.849621      -1.371928
                                                         1.388401      -0.761951
                                                         0.496955      -0.253695
                                                         0.162492      -0.035541
                          1       3    3pz              10.389228      -1.530415
                                                         3.849621      -1.371928
                                                         1.388401      -0.761951
                                                         0.496955      -0.253695
                                                         0.162492      -0.035541

                          1       4    4px              10.389228      -0.565392
                                                         3.849621      -0.038231
                                                         1.388401      -0.382373
                                                         0.496955       0.179070
                                                         0.162492       0.122714
                          1       4    4py              10.389228      -0.565392
                                                         3.849621      -0.038231
                                                         1.388401      -0.382373
                                                         0.496955       0.179070
                                                         0.162492       0.122714
                          1       4    4pz              10.389228      -0.565392
                                                         3.849621      -0.038231
                                                         1.388401      -0.382373
                                                         0.496955       0.179070
                                                         0.162492       0.122714

                          1       5    4dx2             10.389228       1.867377
                                                         3.849621       0.670994
                                                         1.388401       1.353441
                                                         0.496955       0.273538
                                                         0.162492       0.006620
                          1       5    4dxy             10.389228       3.234392
                                                         3.849621       1.162195
                                                         1.388401       2.344229
                                                         0.496955       0.473781
                                                         0.162492       0.011466
                          1       5    4dxz             10.389228       3.234392
                                                         3.849621       1.162195
                                                         1.388401       2.344229
                                                         0.496955       0.473781
                                                         0.162492       0.011466
                          1       5    4dy2             10.389228       1.867377
                                                         3.849621       0.670994
                                                         1.388401       1.353441
                                                         0.496955       0.273538
                                                         0.162492       0.006620
                          1       5    4dyz             10.389228       3.234392
                                                         3.849621       1.162195
                                                         1.388401       2.344229
                                                         0.496955       0.473781
                                                         0.162492       0.011466
                          1       5    4dz2             10.389228       1.867377
                                                         3.849621       0.670994
                                                         1.388401       1.353441
                                                         0.496955       0.273538
                                                         0.162492       0.006620

       Atomic covalent radius [Angstrom]:                                  0.730

       Atomic van der Waals radius [Angstrom]:                             1.520

     GTH Potential information for                                    GTH-PBE-q6

       Description:                       Goedecker-Teter-Hutter pseudopotential
                                           Goedecker et al., PRB 54, 1703 (1996)
                                          Hartwigsen et al., PRB 58, 3641 (1998)
                                                      Krack, TCA 114, 145 (2005)

       Gaussian exponent of the core charge distribution:               8.360253
       Electronic configuration (s p d ...):                               2   4

       Parameters of the local part of the GTH pseudopotential:

                          rloc        C1          C2          C3          C4
                        0.244554  -16.667215    2.487311

       Parameters of the non-local part of the GTH pseudopotential:

                   l      r(l)      h(i,j,l)

                   0    0.220956   18.337458
                   1    0.211332

     A DFT+U correction is applied to atoms of this atomic kind:
       Angular quantum momentum number L:                                      1
       U(eff) = (U - J) value in [eV]:                                     7.500


 MOLECULE KIND INFORMATION


 All atoms are their own molecule, skipping detailed information


 TOTAL NUMBERS AND MAXIMUM NUMBERS

  Total number of            - Atomic kinds:                                   2
                             - Atoms:                                        192
                             - Shell sets:                                   192
                             - Shells:                                      1152
                             - Primitive Cartesian functions:               1024
                             - Cartesian basis functions:                   3776
                             - Spherical basis functions:                   3328

  Maximum angular momentum of- Orbital basis functions:                        3
                             - Local part of the GTH pseudopotential:          2
                             - Non-local part of the GTH pseudopotential:      3


 MODULE QUICKSTEP: ATOMIC COORDINATES IN ANGSTROM

   Atom Kind Element         X             Y             Z       Z(eff)     Mass
      1    1 Ti   22      0.003888      0.003530      0.002645  12.0000  47.8670
      2    1 Ti   22      1.885334      1.885002      4.808538  12.0000  47.8670
      3    1 Ti   22      0.003697      1.886107      2.398188  12.0000  47.8670
      4    1 Ti   22      1.885583      0.003950      7.220170  12.0000  47.8670
      5    1 Ti   22      0.003939      3.777372      0.000943  12.0000  47.8670
      6    1 Ti   22      1.886143     13.234703      4.802114  12.0000  47.8670
      7    1 Ti   22     11.353447      1.885272      2.404870  12.0000  47.8670
      8    1 Ti   22      5.668450      0.003883      7.220819  12.0000  47.8670
      9    1 Ti   22      1.886064      3.777119      7.217225  12.0000  47.8670
     10    1 Ti   22      0.003593     13.234570      2.406576  12.0000  47.8670
     11    1 Ti   22      5.668662      1.885274      4.805472  12.0000  47.8670
     12    1 Ti   22     11.352307      0.003727     -0.005856  12.0000  47.8670
     13    1 Ti   22      3.777596      0.003764      0.001033  12.0000  47.8670
     14    1 Ti   22     13.234502      1.885633      4.816401  12.0000  47.8670
     15    1 Ti   22     13.234902      0.003903      7.213764  12.0000  47.8670
     16    1 Ti   22      3.776991      1.886237      2.399014  12.0000  47.8670
     17    1 Ti   22      1.885424      5.668634      4.810601  12.0000  47.8670
     18    1 Ti   22      0.003917     11.352826      0.009275  12.0000  47.8670
     19    1 Ti   22      0.003760      5.668539      2.395793  12.0000  47.8670
     20    1 Ti   22      1.884961     11.353131      7.212551  12.0000  47.8670
     21    1 Ti   22      0.003873      7.569853      0.010016  12.0000  47.8670
     22    1 Ti   22      1.886254      9.461355      4.803282  12.0000  47.8670
     23    1 Ti   22      7.569725      1.885352      2.406698  12.0000  47.8670
     24    1 Ti   22      9.460989      0.003888      7.212025  12.0000  47.8670
     25    1 Ti   22      1.885206      7.569635      7.209570  12.0000  47.8670
     26    1 Ti   22      0.003797      9.460761      2.405097  12.0000  47.8670
     27    1 Ti   22      9.461211      1.886137      4.813396  12.0000  47.8670
     28    1 Ti   22      7.569733      0.003784     -0.008349  12.0000  47.8670
     29    1 Ti   22      3.777689      3.777630      0.000474  12.0000  47.8670
     30    1 Ti   22     13.234457     13.234826      4.810102  12.0000  47.8670
     31    1 Ti   22     11.353215      5.668675      2.402040  12.0000  47.8670
     32    1 Ti   22      5.668586     11.353076      7.214265  12.0000  47.8670
     33    1 Ti   22     13.234650      3.777549      7.212504  12.0000  47.8670
     34    1 Ti   22      3.777313     13.234556      2.404672  12.0000  47.8670
     35    1 Ti   22      5.668414      5.668394      4.807858  12.0000  47.8670
     36    1 Ti   22     11.353094     11.353409      0.001002  12.0000  47.8670
     37    1 Ti   22     11.352845     13.234538      2.412506  12.0000  47.8670
     38    1 Ti   22      5.668442      3.777302      7.218951  12.0000  47.8670
     39    1 Ti   22      3.777163     11.352314      0.006221  12.0000  47.8670
     40    1 Ti   22     13.234560      5.668473      4.817389  12.0000  47.8670
     41    1 Ti   22      5.668604     13.234645      4.799320  12.0000  47.8670
     42    1 Ti   22     11.352181      3.777023     -0.004556  12.0000  47.8670
     43    1 Ti   22     13.234791     11.352344      7.205756  12.0000  47.8670
     44    1 Ti   22      3.777248      5.668474      2.396850  12.0000  47.8670
     45    1 Ti   22      3.777340      7.569923      0.007935  12.0000  47.8670
     46    1 Ti   22     13.234478      9.460980      4.808665  12.0000  47.8670
     47    1 Ti   22      7.569972      5.668415      2.404129  12.0000  47.8670
     48    1 Ti   22      9.461365     11.352216      7.206530  12.0000  47.8670
     49    1 Ti   22     13.234714      7.569711      7.203315  12.0000  47.8670
     50    1 Ti   22      3.777579      9.460677      2.404524  12.0000  47.8670
     51    1 Ti   22      9.461041      5.668400      4.815253  12.0000  47.8670
     52    1 Ti   22      7.569682     11.353172     -0.001940  12.0000  47.8670
     53    1 Ti   22     11.352368      9.461246      2.409770  12.0000  47.8670
     54    1 Ti   22      5.668358      7.569909      7.211697  12.0000  47.8670
     55    1 Ti   22      5.668537      9.461118      4.800809  12.0000  47.8670
     56    1 Ti   22     11.353029      7.569718      0.003055  12.0000  47.8670
     57    1 Ti   22      9.460777      3.777673      7.212020  12.0000  47.8670
     58    1 Ti   22      7.569797     13.234598      2.413312  12.0000  47.8670
     59    1 Ti   22      7.569780      3.777268     -0.006924  12.0000  47.8670
     60    1 Ti   22      9.460769     13.234643      4.808332  12.0000  47.8670
     61    1 Ti   22      7.569936      7.569972      0.000377  12.0000  47.8670
     62    1 Ti   22      9.460673      9.460728      4.808044  12.0000  47.8670
     63    1 Ti   22      7.569852      9.461086      2.411467  12.0000  47.8670
     64    1 Ti   22      9.461144      7.569804      7.204422  12.0000  47.8670
     65    2 O     8     -0.001371      0.004754      1.976494   6.0000  15.9994
     66    2 O     8      1.885823      1.884874      6.794726   6.0000  15.9994
     67    2 O     8      0.004695      1.886165      4.376999   6.0000  15.9994
     68    2 O     8      1.885238     -0.001129      9.200526   6.0000  15.9994
     69    2 O     8      1.886297      0.004586      5.242420   6.0000  15.9994
     70    2 O     8     -0.001103      1.885095      0.417532   6.0000  15.9994
     71    2 O     8      1.884733      1.885962      2.822256   6.0000  15.9994
     72    2 O     8      0.004649     -0.001332      7.644988   6.0000  15.9994
     73    2 O     8     -0.001050      3.774713      1.956575   6.0000  15.9994
     74    2 O     8      1.886150     13.233815      6.781000   6.0000  15.9994
     75    2 O     8     11.353623      1.885838      4.391005   6.0000  15.9994
     76    2 O     8      5.679306     -0.000804      9.197825   6.0000  15.9994
     77    2 O     8      1.886207      3.774184      5.257337   6.0000  15.9994
     78    2 O     8     -0.001341     13.233847      0.434109   6.0000  15.9994
     79    2 O     8      5.679273      1.886004      2.823526   6.0000  15.9994
     80    2 O     8     11.353368     -0.001103      7.628619   6.0000  15.9994
     81    2 O     8      3.774517     -0.000973      7.660523   6.0000  15.9994
     82    2 O     8     13.233862      1.886283      2.838714   6.0000  15.9994
     83    2 O     8     13.233761     -0.001375      9.187461   6.0000  15.9994
     84    2 O     8      3.774303      1.886097      4.358917   6.0000  15.9994
     85    2 O     8      1.885967      5.679279      6.792505   6.0000  15.9994
     86    2 O     8     -0.001117     11.353230      1.989514   6.0000  15.9994
     87    2 O     8     -0.000771      5.679234      0.418682   6.0000  15.9994
     88    2 O     8      1.885962     11.353747      5.226394   6.0000  15.9994
     89    2 O     8     -0.000813      7.558989      1.986881   6.0000  15.9994
     90    2 O     8      1.886079      9.464105      6.763048   6.0000  15.9994
     91    2 O     8      7.559004      1.885986      4.388494   6.0000  15.9994
     92    2 O     8      9.463687     -0.001034      9.167448   6.0000  15.9994
     93    2 O     8      1.886005      7.559098      5.227770   6.0000  15.9994
     94    2 O     8     -0.000989      9.463898      0.449771   6.0000  15.9994
     95    2 O     8      9.464266      1.886188      2.853700   6.0000  15.9994
     96    2 O     8      7.559077     -0.000773      7.629679   6.0000  15.9994
     97    2 O     8      3.770778      0.004166      1.978789   6.0000  15.9994
     98    2 O     8     13.239535      1.885241      6.796796   6.0000  15.9994
     99    2 O     8      0.004288      5.650956      4.378742   6.0000  15.9994
    100    2 O     8      1.884858     11.352598      9.198869   6.0000  15.9994
    101    2 O     8     13.239742      0.004654      5.241100   6.0000  15.9994
    102    2 O     8      3.770458      1.885458      0.416633   6.0000  15.9994
    103    2 O     8      1.884921      5.651041      2.822056   6.0000  15.9994
    104    2 O     8      0.004615     11.352152      7.646606   6.0000  15.9994
    105    2 O     8     11.352468      1.884748      0.418479   6.0000  15.9994
    106    2 O     8      5.650997      0.004259      5.238263   6.0000  15.9994
    107    2 O     8      5.650993      1.884971      6.794014   6.0000  15.9994
    108    2 O     8     11.352276      0.004664      1.972992   6.0000  15.9994
    109    2 O     8      1.885525      3.770355      9.199562   6.0000  15.9994
    110    2 O     8      0.004729     13.239770      4.380408   6.0000  15.9994
    111    2 O     8      0.004114      3.770894      7.638630   6.0000  15.9994
    112    2 O     8      1.885123     13.239529      2.821411   6.0000  15.9994
    113    2 O     8      3.770533      3.775089      1.960379   6.0000  15.9994
    114    2 O     8     13.239796     13.233738      6.783828   6.0000  15.9994
    115    2 O     8     11.353512      5.650969      4.390495   6.0000  15.9994
    116    2 O     8      5.679373     11.352447      9.196276   6.0000  15.9994
    117    2 O     8     13.239399      3.774532      5.256956   6.0000  15.9994
    118    2 O     8      3.770918     13.234326      0.427389   6.0000  15.9994
    119    2 O     8      5.678888      5.651318      2.822677   6.0000  15.9994
    120    2 O     8     11.353793     11.352469      7.629735   6.0000  15.9994
    121    2 O     8     11.352125     13.233879      0.434522   6.0000  15.9994
    122    2 O     8      5.651117      3.774600      5.255429   6.0000  15.9994
    123    2 O     8      3.774139     11.352228      7.661334   6.0000  15.9994
    124    2 O     8     13.234240      5.650987      2.835045   6.0000  15.9994
    125    2 O     8      5.650938     13.234244      6.782151   6.0000  15.9994
    126    2 O     8     11.352338      3.774286      1.955432   6.0000  15.9994
    127    2 O     8     13.233781     11.352262      9.184724   6.0000  15.9994
    128    2 O     8      3.774651      5.651126      4.360413   6.0000  15.9994
    129    2 O     8      5.651311      5.678865      6.793028   6.0000  15.9994
    130    2 O     8     11.352601     11.353660      1.987211   6.0000  15.9994
    131    2 O     8     13.234356      3.770800      9.190314   6.0000  15.9994
    132    2 O     8      3.774728     13.239451      4.360361   6.0000  15.9994
    133    2 O     8     11.352423      5.679285      0.420027   6.0000  15.9994
    134    2 O     8      5.651075     11.353553      5.225835   6.0000  15.9994
    135    2 O     8      3.775036      3.770581      7.655675   6.0000  15.9994
    136    2 O     8     13.233832     13.239752      2.837478   6.0000  15.9994
    137    2 O     8     13.239511     11.353346      5.225123   6.0000  15.9994
    138    2 O     8      3.770373      5.678554      0.416759   6.0000  15.9994
    139    2 O     8      5.679182     13.239186      2.822184   6.0000  15.9994
    140    2 O     8     11.353005      3.770466      7.628206   6.0000  15.9994
    141    2 O     8      3.770323     11.352987      1.988500   6.0000  15.9994
    142    2 O     8     13.239225      5.679280      6.794413   6.0000  15.9994
    143    2 O     8     11.353205     13.239540      4.392853   6.0000  15.9994
    144    2 O     8      5.678483      3.770362      9.199006   6.0000  15.9994
    145    2 O     8      3.770344      7.559786      1.987897   6.0000  15.9994
    146    2 O     8     13.239486      9.463706      6.764128   6.0000  15.9994
    147    2 O     8      7.559439      5.651303      4.389161   6.0000  15.9994
    148    2 O     8      9.464123     11.352322      9.166311   6.0000  15.9994
    149    2 O     8     13.239185      7.559069      5.226325   6.0000  15.9994
    150    2 O     8      3.770605      9.463403      0.445049   6.0000  15.9994
    151    2 O     8      9.463872      5.651101      2.851953   6.0000  15.9994
    152    2 O     8      7.559045     11.352432      7.631147   6.0000  15.9994
    153    2 O     8     11.352218      9.464236      0.449976   6.0000  15.9994
    154    2 O     8      5.651327      7.559488      5.226694   6.0000  15.9994
    155    2 O     8      5.651106      9.463806      6.764241   6.0000  15.9994
    156    2 O     8     11.352468      7.559055      1.984975   6.0000  15.9994
    157    2 O     8      9.463307      3.770557      9.171886   6.0000  15.9994
    158    2 O     8      7.559024     13.239208      4.390219   6.0000  15.9994
    159    2 O     8      7.559870      3.770359      7.628144   6.0000  15.9994
    160    2 O     8      9.463890     13.239409      2.852936   6.0000  15.9994
    161    2 O     8      7.587404      0.004267      1.974545   6.0000  15.9994
    162    2 O     8      9.468029      1.885493      6.795847   6.0000  15.9994
    163    2 O     8      0.004141      9.467571      4.383066   6.0000  15.9994
    164    2 O     8      1.884963      7.587403      9.198142   6.0000  15.9994
    165    2 O     8      9.467449      0.004165      5.234550   6.0000  15.9994
    166    2 O     8      7.587307      1.884923      0.418143   6.0000  15.9994
    167    2 O     8      1.885479      9.467889      2.820835   6.0000  15.9994
    168    2 O     8      0.004254      7.587359      7.642625   6.0000  15.9994
    169    2 O     8      7.587248      3.774622      1.956645   6.0000  15.9994
    170    2 O     8      9.467569     13.234327      6.786071   6.0000  15.9994
    171    2 O     8     11.352944      9.468013      4.392134   6.0000  15.9994
    172    2 O     8      5.678922      7.587074      9.196861   6.0000  15.9994
    173    2 O     8      9.467771      3.775043      5.252232   6.0000  15.9994
    174    2 O     8      7.587382     13.234243      0.430788   6.0000  15.9994
    175    2 O     8      5.678452      9.468012      2.820648   6.0000  15.9994
    176    2 O     8     11.353592      7.587312      7.629617   6.0000  15.9994
    177    2 O     8      3.774552      7.587254      7.659506   6.0000  15.9994
    178    2 O     8     13.234364      9.467460      2.831363   6.0000  15.9994
    179    2 O     8     13.234217      7.587413      9.186278   6.0000  15.9994
    180    2 O     8      3.775127      9.467832      4.364727   6.0000  15.9994
    181    2 O     8      9.468023      5.678521      6.795422   6.0000  15.9994
    182    2 O     8      7.587361     11.353541      1.986520   6.0000  15.9994
    183    2 O     8      7.587046      5.678895      0.418985   6.0000  15.9994
    184    2 O     8      9.467902     11.353001      5.224141   6.0000  15.9994
    185    2 O     8      7.587057      7.559488      1.985406   6.0000  15.9994
    186    2 O     8      9.467824      9.463330      6.767850   6.0000  15.9994
    187    2 O     8      7.559830      9.468009      4.391495   6.0000  15.9994
    188    2 O     8      9.463804      7.587263      9.167822   6.0000  15.9994
    189    2 O     8      9.468005      7.559765      5.224365   6.0000  15.9994
    190    2 O     8      7.587281      9.463865      0.448128   6.0000  15.9994
    191    2 O     8      9.463388      9.467796      2.848385   6.0000  15.9994
    192    2 O     8      7.559467      7.587046      7.630364   6.0000  15.9994



 SCF PARAMETERS         Density guess:                                   RESTART
                        --------------------------------------------------------
                        max_scf:                                              40
                        max_scf_history:                                       0
                        max_diis:                                              4
                        --------------------------------------------------------
                        eps_scf:                                        1.00E-06
                        eps_scf_history:                                0.00E+00
                        eps_diis:                                       1.00E-01
                        eps_eigval:                                     1.00E-05
                        --------------------------------------------------------
                        level_shift [a.u.]:                             0.000000
                        --------------------------------------------------------
                        Outer loop SCF in use 
                        No variables optimised in outer loop
                        eps_scf                                         1.00E-06
                        max_scf                                               60
                        No outer loop optimization
                        step_size                                       5.00E-01

 PW_GRID| Information for grid number                                          1
 PW_GRID| Grid distributed over                                   128 processors
 PW_GRID| Real space group dimensions                                   128    1
 PW_GRID| the grid is blocked:                                                NO
 PW_GRID| Cutoff [a.u.]                                                    300.0
 PW_GRID| spherical cutoff:                                                   NO
 PW_GRID|   Bounds   1           -112     112                Points:         225
 PW_GRID|   Bounds   2           -112     112                Points:         225
 PW_GRID|   Bounds   3            -72      71                Points:         144
 PW_GRID| Volume element (a.u.^3)  0.2035E-02     Volume (a.u.^3)     14833.7304
 PW_GRID| Grid span                                                    FULLSPACE
 PW_GRID|   Distribution                         Average         Max         Min
 PW_GRID|   G-Vectors                            56953.1       57150       56925
 PW_GRID|   G-Rays                                 253.1         254         253
 PW_GRID|   Real Space Points                    56953.1       64800       32400

 PW_GRID| Information for grid number                                          2
 PW_GRID| Number of the reference grid                                         1
 PW_GRID| Grid distributed over                                   128 processors
 PW_GRID| Real space group dimensions                                   128    1
 PW_GRID| the grid is blocked:                                                NO
 PW_GRID| Cutoff [a.u.]                                                    100.0
 PW_GRID| spherical cutoff:                                                   NO
 PW_GRID|   Bounds   1            -67      67                Points:         135
 PW_GRID|   Bounds   2            -67      67                Points:         135
 PW_GRID|   Bounds   3            -40      40                Points:          81
 PW_GRID| Volume element (a.u.^3)  0.1005E-01     Volume (a.u.^3)     14833.7304
 PW_GRID| Grid span                                                    FULLSPACE
 PW_GRID|   Distribution                         Average         Max         Min
 PW_GRID|   G-Vectors                            11533.0       12150       10800
 PW_GRID|   G-Rays                                  85.4          90          80
 PW_GRID|   Real Space Points                    11533.0       21870       10935

 PW_GRID| Information for grid number                                          3
 PW_GRID| Number of the reference grid                                         1
 PW_GRID| Grid distributed over                                   128 processors
 PW_GRID| Real space group dimensions                                     8   16
 PW_GRID| the grid is blocked:                                                NO
 PW_GRID| Cutoff [a.u.]                                                     33.3
 PW_GRID| spherical cutoff:                                                   NO
 PW_GRID|   Bounds   1            -37      37                Points:          75
 PW_GRID|   Bounds   2            -37      37                Points:          75
 PW_GRID|   Bounds   3            -24      23                Points:          48
 PW_GRID| Volume element (a.u.^3)  0.5494E-01     Volume (a.u.^3)     14833.7304
 PW_GRID| Grid span                                                    FULLSPACE
 PW_GRID|   Distribution                         Average         Max         Min
 PW_GRID|   G-Vectors                             2109.4        2475        1725
 PW_GRID|   G-Rays                                  28.1          33          23
 PW_GRID|   Real Space Points                     2109.4        2400        1728

 PW_GRID| Information for grid number                                          4
 PW_GRID| Number of the reference grid                                         1
 PW_GRID| Grid distributed over                                   128 processors
 PW_GRID| Real space group dimensions                                     8   16
 PW_GRID| the grid is blocked:                                                NO
 PW_GRID| Cutoff [a.u.]                                                     11.1
 PW_GRID| spherical cutoff:                                                   NO
 PW_GRID|   Bounds   1            -22      22                Points:          45
 PW_GRID|   Bounds   2            -22      22                Points:          45
 PW_GRID|   Bounds   3            -13      13                Points:          27
 PW_GRID| Volume element (a.u.^3)  0.2713         Volume (a.u.^3)     14833.7304
 PW_GRID| Grid span                                                    FULLSPACE
 PW_GRID|   Distribution                         Average         Max         Min
 PW_GRID|   G-Vectors                              427.1         585         270
 PW_GRID|   G-Rays                                   9.5          13           6
 PW_GRID|   Real Space Points                      427.1         486         270

 POISSON| Solver                                                        PERIODIC
 POISSON| Periodicity                                                        XYZ

 RS_GRID| Information for grid number                                          1
 RS_GRID|   Bounds   1           -112     112                Points:         225
 RS_GRID|   Bounds   2           -112     112                Points:         225
 RS_GRID|   Bounds   3            -72      71                Points:         144
 RS_GRID| Real space distribution over                                  8 groups
 RS_GRID| Real space distribution along direction                              1
 RS_GRID| Border size                                                         26
 RS_GRID| Real space distribution over                                 16 groups
 RS_GRID| Real space distribution along direction                              2
 RS_GRID| Border size                                                         26
 RS_GRID|   Distribution                         Average         Max         Min
 RS_GRID|   Planes                                  80.1          81          80
 RS_GRID|   Distribution                         Average         Max         Min
 RS_GRID|   Planes                                  66.1          67          66

 RS_GRID| Information for grid number                                          2
 RS_GRID|   Bounds   1            -67      67                Points:         135
 RS_GRID|   Bounds   2            -67      67                Points:         135
 RS_GRID|   Bounds   3            -40      40                Points:          81
 RS_GRID| Real space distribution over                                  8 groups
 RS_GRID| Real space distribution along direction                              1
 RS_GRID| Border size                                                         24
 RS_GRID| Real space distribution over                                 16 groups
 RS_GRID| Real space distribution along direction                              2
 RS_GRID| Border size                                                         24
 RS_GRID|   Distribution                         Average         Max         Min
 RS_GRID|   Planes                                  64.9          65          64
 RS_GRID|   Distribution                         Average         Max         Min
 RS_GRID|   Planes                                  56.4          57          56

 RS_GRID| Information for grid number                                          3
 RS_GRID|   Bounds   1            -37      37                Points:          75
 RS_GRID|   Bounds   2            -37      37                Points:          75
 RS_GRID|   Bounds   3            -24      23                Points:          48
 RS_GRID| Real space fully replicated
 RS_GRID| Group size                                                           1

 RS_GRID| Information for grid number                                          4
 RS_GRID|   Bounds   1            -22      22                Points:          45
 RS_GRID|   Bounds   2            -22      22                Points:          45
 RS_GRID|   Bounds   3            -13      13                Points:          27
 RS_GRID| Real space fully replicated
 RS_GRID| Group size                                                           1

 BFGS| Use rational function optimization for step estimation:                NO
 BFGS| Use model Hessian for initial guess:                                  YES
 BFGS| Restart Hessian:                                                       NO
 BFGS| Trust radius:                                                       0.472

 *******************************************************************************
 ***                     STARTING GEOMETRY OPTIMIZATION                      ***
 ***                                   BFGS                                  ***
 *******************************************************************************

 Spin 1

 Number of electrons:                                                        768
 Number of occupied orbitals:                                                768
 Number of molecular orbitals:                                               768

 Spin 2

 Number of electrons:                                                        767
 Number of occupied orbitals:                                                767
 Number of molecular orbitals:                                               767

 Number of orbital functions:                                               3328
 Number of independent orbital functions:                                   3328

 Extrapolation method: initial_guess

 *** WARNING in qs_initial_guess.F:306 :: User requested to restart the    ***
 *** wavefunction from the file named: tio2-RESTART.wfn. This file does    ***
 *** not exist. Please check the existence of the file or change properly  ***
 *** the value of the keyword WFN_RESTART_FILE_NAME. Calculation continues ***
 *** using ATOMIC GUESS.                                                   ***


 Atomic guess: The first density matrix is obtained in terms of atomic orbitals
               and electronic configurations assigned to each atomic kind

 Guess for atomic kind: Ti

 Electronic structure
    Total number of core electrons                                         10.00
    Total number of valence electrons                                      12.00
    Total number of electrons                                              22.00
    Multiplicity                                                   not specified
    S   [  2.00  2.00] 2.00  2.00
    P   [  6.00] 6.00
    D      2.00


 *******************************************************************************
                  Iteration          Convergence                     Energy [au]
 *******************************************************************************
                          1         2.59099                     -56.573945749309
                          2        0.737518                     -57.461623245624
                          3        0.123244E-01                 -57.676656834797
                          4        0.338536E-02                 -57.676690535970
                          5        0.252157E-03                 -57.676697146183
                          6        0.162704E-05                 -57.676697160103
                          7        0.846593E-06                 -57.676697160104

 Energy components [Hartree]           Total Energy ::          -57.676697160104
                                        Band Energy ::          -13.440549799540
                                     Kinetic Energy ::           25.008468428381
                                   Potential Energy ::          -82.685165588485
                                      Virial (-V/T) ::            3.306286661467
                                        Core Energy ::          -97.155838374470
                                          XC Energy ::           -6.919409696495
                                     Coulomb Energy ::           46.398550910862
                       Total Pseudopotential Energy ::         -122.259340742080
                       Local Pseudopotential Energy ::         -118.928992669456
                    Nonlocal Pseudopotential Energy ::           -3.330348072625
                                        Confinement ::            0.950339392289

 Orbital energies  State     L     Occupation   Energy[a.u.]          Energy[eV]

                       1     0          2.000      -2.312566          -62.928123
                       2     0          2.000      -0.123060           -3.348633

                       1     1          6.000      -1.385567          -37.703193

                       1     2          2.000      -0.127948           -3.481643


 Total Electron Density at R=0:                                         0.004726

 Guess for atomic kind: O

 Electronic structure
    Total number of core electrons                                          2.00
    Total number of valence electrons                                       6.00
    Total number of electrons                                               8.00
    Multiplicity                                                   not specified
    S   [  2.00] 2.00
    P      4.00


 *******************************************************************************
                  Iteration          Convergence                     Energy [au]
 *******************************************************************************
                          1        0.702811                     -15.577904332270
                          2        0.612408                     -15.588447180504
                          3        0.955344E-02                 -15.655871208406
                          4        0.223754E-02                 -15.655885053552
                          5        0.157183E-02                 -15.655885461027
                          6        0.124953E-02                 -15.655885607150
                          7        0.312011E-06                 -15.655885858066

 Energy components [Hartree]           Total Energy ::          -15.655885858066
                                        Band Energy ::           -2.983128125584
                                     Kinetic Energy ::           11.754765134683
                                   Potential Energy ::          -27.410650992749
                                      Virial (-V/T) ::            2.331875684345
                                        Core Energy ::          -26.153522949072
                                          XC Energy ::           -3.157392363346
                                     Coulomb Energy ::           13.655029454351
                       Total Pseudopotential Energy ::          -37.943026860963
                       Local Pseudopotential Energy ::          -39.220419683052
                    Nonlocal Pseudopotential Energy ::            1.277392822089
                                        Confinement ::            0.347387772086

 Orbital energies  State     L     Occupation   Energy[a.u.]          Energy[eV]

                       1     0          2.000      -0.861522          -23.443215

                       1     1          4.000      -0.315021           -8.572154


 Total Electron Density at R=0:                                         0.000093

 Spin 1
 Re-scaling the density matrix to get the right number of electrons for spin 1
                  # Electrons              Trace(P)               Scaling factor
                          768               768.001                        1.000

 Spin 2
 Re-scaling the density matrix to get the right number of electrons for spin 2
                  # Electrons              Trace(P)               Scaling factor
                          767               768.001                        0.999


 SCF WAVEFUNCTION OPTIMIZATION

  ----------------------------------- OT ---------------------------------------
  Minimizer      : DIIS                : direct inversion
                                         in the iterative subspace
                                         using   7 DIIS vectors
                                         safer DIIS on
  Preconditioner : FULL_SINGLE_INVERSE : inversion of 
                                         H + eS - 2*(Sc)(c^T*H*c+const)(Sc)^T
  Precond_solver : DEFAULT
  stepsize       :    0.08000000                  energy_gap     :    0.08000000
  eps_taylor     :   0.10000E-15                  max_taylor     :             4
  ----------------------------------- OT ---------------------------------------

  Step     Update method      Time    Convergence         Total energy    Change
  ------------------------------------------------------------------------------
     1 OT DIIS     0.80E-01    2.1     0.00997168     -5647.4813490383 -5.65E+03
     2 OT DIIS     0.80E-01    1.5     0.00722652     -5681.9435940195 -3.45E+01
     3 OT DIIS     0.80E-01    1.5     0.00464535     -5714.1140149282 -3.22E+01
     4 OT DIIS     0.80E-01    1.5     0.00367315     -5724.5779252133 -1.05E+01
     5 OT DIIS     0.80E-01    1.5     0.00267432     -5735.8316517337 -1.13E+01
     6 OT DIIS     0.80E-01    1.5     0.00219568     -5742.6954228514 -6.86E+00
     7 OT DIIS     0.80E-01    1.5     0.00185348     -5748.5669497839 -5.87E+00
     8 OT DIIS     0.80E-01    1.5     0.00148288     -5754.3403842653 -5.77E+00
     9 OT DIIS     0.80E-01    1.5     0.00127057     -5757.9626429666 -3.62E+00
    10 OT DIIS     0.80E-01    1.5     0.00099239     -5761.1588089428 -3.20E+00
    11 OT DIIS     0.80E-01    1.5     0.00090506     -5761.9637631501 -8.05E-01
    12 OT DIIS     0.80E-01    1.5     0.00073741     -5763.6824321145 -1.72E+00
    13 OT DIIS     0.80E-01    1.5     0.00059747     -5765.0586383509 -1.38E+00
    14 OT DIIS     0.80E-01    1.5     0.00049405     -5765.9606746517 -9.02E-01
    15 OT DIIS     0.80E-01    1.5     0.00043914     -5766.4356768485 -4.75E-01
    16 OT DIIS     0.80E-01    1.5     0.00037534     -5766.9034867086 -4.68E-01
    17 OT DIIS     0.80E-01    1.5     0.00033721     -5767.1874887538 -2.84E-01
    18 OT DIIS     0.80E-01    1.5     0.00029374     -5767.4876746414 -3.00E-01
    19 OT DIIS     0.80E-01    1.5     0.00026278     -5767.6623852871 -1.75E-01
    20 OT DIIS     0.80E-01    1.5     0.00024998     -5767.7541912063 -9.18E-02
    21 OT DIIS     0.80E-01    1.5     0.00022381     -5767.9494966002 -1.95E-01
    22 OT DIIS     0.80E-01    1.5     0.00020027     -5768.0955596076 -1.46E-01
    23 OT DIIS     0.80E-01    1.5     0.00018615     -5768.1978293129 -1.02E-01
    24 OT DIIS     0.80E-01    1.5     0.00016811     -5768.2753394613 -7.75E-02
    25 OT DIIS     0.80E-01    1.5     0.00016076     -5768.3344890080 -5.91E-02
    26 OT DIIS     0.80E-01    1.5     0.00014828     -5768.3912078613 -5.67E-02
    27 OT DIIS     0.80E-01    1.5     0.00014385     -5768.4503745058 -5.92E-02
    28 OT DIIS     0.80E-01    1.5     0.00014166     -5768.4595185629 -9.14E-03
    29 OT SD       0.80E-01    1.5     0.00014740     -5768.4892029886 -2.97E-02
    30 OT DIIS     0.80E-01    1.5     0.00014149     -5768.4978757956 -8.67E-03
    31 OT DIIS     0.80E-01    1.5     0.00012971     -5768.5273960060 -2.95E-02
    32 OT DIIS     0.80E-01    1.5     0.00012484     -5768.5652947390 -3.79E-02
    33 OT DIIS     0.80E-01    1.5     0.00011837     -5768.6038828020 -3.86E-02
    34 OT DIIS     0.80E-01    1.5     0.00011648     -5768.6235186097 -1.96E-02
    35 OT DIIS     0.80E-01    1.5     0.00011527     -5768.6299125085 -6.39E-03
    36 OT DIIS     0.80E-01    1.5     0.00010964     -5768.6739963823 -4.41E-02
    37 OT DIIS     0.80E-01    1.5     0.00010760     -5768.6882064153 -1.42E-02
    38 OT SD       0.80E-01    1.5     0.00010457     -5768.7291641151 -4.10E-02
    39 OT DIIS     0.80E-01    1.5     0.00010353     -5768.7336077494 -4.44E-03
    40 OT SD       0.80E-01    1.4     0.00010322     -5768.7651502874 -3.15E-02

  Leaving inner SCF loop after reaching    40 steps.


  Electronic density on regular grids:      -1534.9999999999        0.0000000001
  Core density on regular grids:             1535.9999999995       -0.0000000005
  Total charge density on r-space grids:        0.9999999996
  Total charge density g-space grids:           0.9999999996

  Overlap energy of the core charge distribution:               0.00000000000313
  Self energy of the core charge distribution:             -12156.89556134359555
  Core Hamiltonian energy:                                   3310.36883946651551
  Hartree energy:                                            3990.01508192503843
  Exchange-correlation energy:                               -930.58735657536738

  DFT+U energy:                                                18.33384624002596

  Total energy:                                             -5768.76515028737958

  outer SCF iter =    1 RMS gradient =   0.10E-03 energy =      -5768.7651502874

  ----------------------------------- OT ---------------------------------------
[...]
      -0.37920650     -0.37816609     -0.37794161     -0.37733445
      -0.37651886     -0.37614788     -0.37541593     -0.37527172
      -0.37481588     -0.37457572     -0.37385994     -0.37334920
      -0.37232326     -0.37203052     -0.37148511     -0.37082362
      -0.37056876     -0.37024951     -0.36971535     -0.36922173
      -0.36893973     -0.36836446     -0.36759547     -0.36716079
      -0.36694307     -0.36670338     -0.36617938     -0.36561351
      -0.36488405     -0.36451479     -0.36382076     -0.36065365
      -0.35121541     -0.34780273     -0.34711912     -0.34579376
      -0.34386986     -0.34310351     -0.34258146     -0.34179513
      -0.34039479     -0.33941813     -0.33776883     -0.33738114
      -0.33721079     -0.33682728     -0.33598731     -0.33541712
      -0.33530248     -0.33475747     -0.33415868     -0.33327189
      -0.33306041     -0.33231303     -0.33131199     -0.33110274
      -0.33071255     -0.33057158     -0.32993026     -0.32893083
      -0.32851657     -0.32812213     -0.32796242     -0.32737758
      -0.32649298     -0.32638935     -0.32589806     -0.32542844
      -0.32499680     -0.32476767     -0.32459208     -0.32427084
      -0.32415940     -0.32338016     -0.32333909     -0.32267139
      -0.32246278     -0.32229190     -0.32181919     -0.32165125
      -0.32129977     -0.32095424     -0.32060141     -0.32028274
      -0.32017047     -0.31919751     -0.31889494     -0.31852739
      -0.31819119     -0.31790001     -0.31769478     -0.31759483
      -0.31683292     -0.31645120     -0.31601955     -0.31425332
      -0.09117213     -0.07417640     -0.05130114     -0.04875491
      -0.04784746     -0.04675429     -0.04549652     -0.04526704
      -0.04442180     -0.04334638     -0.04290134     -0.04103112
      -0.04092708     -0.03974742     -0.03931251     -0.03888654
      -0.03769261     -0.03729662     -0.03655736     -0.03565909
      -0.03532961     -0.03433598     -0.03295319     -0.03273081
      -0.03174685     -0.03070996     -0.03026910     -0.02993624
      -0.02861585     -0.02792921     -0.02760714     -0.02737062
      -0.02658923     -0.02641503     -0.02589874     -0.02533325
      -0.02489957     -0.02443141     -0.02342144     -0.02286875
      -0.02227442     -0.02199596     -0.02175319     -0.02136761
      -0.02043302     -0.01992285     -0.01932704     -0.01890862
      -0.01848126     -0.01809713     -0.01738835     -0.01695000
      -0.01628438     -0.01572434     -0.01561608     -0.01512598
      -0.01457484     -0.01411497     -0.01339155     -0.01322236
      -0.01275934     -0.01197858     -0.01175527     -0.01135862
      -0.01084287     -0.01037262     -0.00999944     -0.00974344
      -0.00959757     -0.00914159     -0.00883406     -0.00855109
      -0.00826827     -0.00764696     -0.00746400     -0.00714433
      -0.00679470     -0.00655375     -0.00628250     -0.00577835
      -0.00533394     -0.00501707     -0.00472799     -0.00409239
      -0.00345846     -0.00326845     -0.00299938     -0.00242416
      -0.00214878     -0.00166377     -0.00163270     -0.00146633
      -0.00053997     -0.00020645      0.00027323      0.00043211
       0.00100497      0.00122886      0.00164072      0.00169927
       0.00232758      0.00307262      0.00344140      0.00414612
       0.00455544      0.00479521      0.00556751      0.00575294
       0.00605861      0.00670023      0.00695247      0.00715697
       0.00732938      0.00762286      0.00782998      0.00834603
       0.00895448      0.00908228      0.00983854      0.01040752
       0.01128479      0.01177088      0.01200238      0.01231705
       0.01270025      0.01397930      0.01435208      0.01451708
       0.01472837      0.01495061      0.01551104      0.01576943
       0.01621650      0.01686337      0.01730216      0.01786719
       0.01850901      0.01908735      0.01994324      0.02057951
       0.02113444      0.02134170      0.02157393      0.02210058
       0.02327464      0.02331647      0.02358653      0.02421106
       0.02493100      0.02503933      0.02576819      0.02652010
       0.02668050      0.02753147      0.02781455      0.03057463
       0.03081758      0.03292715      0.03352010      0.03450398
       0.03503591      0.03598857      0.03699584      0.03766682
       0.03797584      0.03838695      0.03865460      0.03968884
       0.04009878      0.04242028      0.04268602      0.04341376
       0.04475750      0.04509212      0.04650141      0.04793547
       0.04957839      0.05150089      0.05203441      0.05274934
       0.05344392      0.05367573      0.05404993      0.05526766
       0.05604323      0.05679214      0.05797096      0.05864122
       0.05921592      0.06118738      0.06276791      0.06455857
       0.06693643      0.06781563      0.06814952      0.06936498
       0.07083980      0.07256695      0.07407093      0.07516117
       0.07666430      0.07692778      0.07827800      0.07832959
       0.07865886      0.07902722      0.08031513      0.08151018
       0.08239081      0.08314278      0.08521273      0.08547812
       0.08636264      0.08780102      0.08843094      0.08949548
       0.09337720      0.09665983      0.09770072      0.09792222
       0.09854804      0.09912578      0.10006668      0.10047563
       0.10246766      0.10334776      0.10354429      0.10515435
       0.10563050      0.10738590      0.10751861      0.10812274
       0.10933381      0.10998298      0.11039428      0.11140613
       0.11286579      0.11301854      0.11428741      0.11553713
       0.11726080      0.11782042      0.11904642      0.11943123
       0.12045841      0.12122293      0.12155856      0.12246198
       0.12353205      0.12413157      0.12481568      0.12527201
       0.12568212      0.12653789      0.12711458      0.12789423
       0.12829193      0.12940017      0.13006779      0.13086707
       0.13195659      0.13245633      0.13283396      0.13310629
       0.13353041      0.13412703      0.13583290      0.13608455
       0.13685913      0.13777573      0.13822696      0.13847209
       0.13933210      0.13994994      0.14088516      0.14143234
       0.14246086      0.14322118      0.14351707      0.14513853
       0.14548669      0.14701500      0.14717036      0.14838075
       0.14928387      0.15016557      0.15029969      0.15182025
       0.15235740      0.15317434      0.15450314      0.15496553
       0.15553774      0.15582278      0.15702048      0.15769420
       0.15822251      0.15902211      0.16061361      0.16144792
       0.16230812      0.16328889      0.16368082      0.16445183
       0.16477944      0.16520476      0.16555116      0.16637907
       0.16669882      0.16731852      0.16769450      0.16798509
       0.16890778      0.16902588      0.16949375      0.17049957
       0.17102445      0.17158582      0.17248818      0.17358922
       0.17391809      0.17457319      0.17544616      0.17612096
       0.17622650      0.17799080      0.17888391      0.17958089
       0.17987659      0.18211158      0.18300682      0.18342250
       0.18472956      0.18692835      0.18787105      0.18895462
       0.19070935      0.19095234      0.19248283      0.19409710
       0.19513393      0.19680145      0.19861738      0.19919383
       0.20050754      0.20163720      0.20309119      0.20453334
       0.20494040      0.20626334      0.20721542      0.20951466
       0.21121624      0.21225161      0.21308001      0.21548355
       0.21922437      0.22097617      0.22113274      0.22537958
       0.22711639      0.22849050      0.22917079      0.23343999
       0.23394775      0.23500862      0.23669110      0.23810899
       0.23927913      0.24024811      0.24500519      0.24553451
       0.24781318      0.24959577      0.25126034      0.25323123
       0.25514420      0.25826400      0.25881327      0.26153769
       0.26405060      0.26626928      0.26958608      0.27356247
 Fermi Energy [eV] :    7.444013
  
  Eigenvalues of the occupied subspace spin            2
 ---------------------------------------------
      -1.92512827     -1.92205033     -1.92036763     -1.91674720
      -1.91668297     -1.91657399     -1.91609434     -1.91553290
      -1.91477669     -1.91467547     -1.91454498     -1.91428729
      -1.91374803     -1.91358876     -1.91246530     -1.91220315
      -1.91194061     -1.91168481     -1.91146698     -1.91130349
      -1.91102053     -1.91069924     -1.91041187     -1.91034411
      -1.91014116     -1.91011957     -1.91010556     -1.91004910
      -1.91002150     -1.90990103     -1.90961320     -1.90949009
      -1.90936637     -1.90929792     -1.90924054     -1.90920693
      -1.90883933     -1.90859458     -1.90849438     -1.90843843
      -1.90824594     -1.90812865     -1.90775154     -1.90772718
      -1.90726889     -1.90721377     -1.90721093     -1.90671656
      -1.90604380     -1.90594722     -1.90591666     -1.90588623
      -1.90551523     -1.90548338     -1.90505935     -1.90457332
      -1.90428143     -1.90334864     -1.90330812     -1.90308613
      -1.90292633     -1.90267876     -1.90206064     -1.90126792
      -1.00233144     -1.00145057     -1.00143118     -0.99864079
      -0.99839558     -0.99783191     -0.99761531     -0.99686299
      -0.99663098     -0.99651314     -0.99571383     -0.99522612
      -0.99492237     -0.99485379     -0.99442435     -0.99415170
      -0.99386319     -0.99327925     -0.99318793     -0.99268816
      -0.99261102     -0.99250626     -0.99202958     -0.99199166
      -0.99189340     -0.99160098     -0.99125193     -0.99108829
      -0.99077233     -0.99057397     -0.99042013     -0.99027867
      -0.99027452     -0.99001120     -0.98992117     -0.98976579
      -0.98934695     -0.98931005     -0.98929816     -0.98879239
      -0.98848479     -0.98833372     -0.98829043     -0.98811434
      -0.98794866     -0.98791444     -0.98771185     -0.98754991
      -0.98751330     -0.98733762     -0.98721290     -0.98709917
      -0.98692198     -0.98688129     -0.98676432     -0.98666717
      -0.98654445     -0.98651165     -0.98644075     -0.98618371
      -0.98608660     -0.98601805     -0.98599254     -0.98585528
      -0.98566576     -0.98554457     -0.98549896     -0.98546323
      -0.98536163     -0.98523409     -0.98511969     -0.98505860
      -0.98494360     -0.98484419     -0.98452647     -0.98444840
      -0.98436202     -0.98434568     -0.98429649     -0.98422113
      -0.98407789     -0.98406617     -0.98394884     -0.98370426
      -0.98367392     -0.98352181     -0.98346802     -0.98330231
      -0.98328214     -0.98307160     -0.98297758     -0.98291679
      -0.98278418     -0.98270545     -0.98254949     -0.98246333
      -0.98238055     -0.98228124     -0.98212795     -0.98206711
      -0.98199439     -0.98188424     -0.98182646     -0.98174453
      -0.98157824     -0.98151187     -0.98143237     -0.98139811
      -0.98133644     -0.98127259     -0.98108302     -0.98101019
      -0.98089266     -0.98079597     -0.98067720     -0.98060586
      -0.98056900     -0.98052064     -0.98042082     -0.98036363
      -0.98030615     -0.98029043     -0.98018534     -0.98007648
      -0.97991634     -0.97986295     -0.97969029     -0.97965035
      -0.97958716     -0.97951515     -0.97948970     -0.97932893
      -0.97920027     -0.97914922     -0.97908456     -0.97903758
      -0.97891439     -0.97889197     -0.97880969     -0.97879222
      -0.97871203     -0.97860613     -0.97848460     -0.97834253
      -0.97816930     -0.97805381     -0.97792978     -0.97782429
      -0.97775643     -0.97769961     -0.97759002     -0.97737340
      -0.97730905     -0.97722553     -0.97703189     -0.97697975
      -0.97688269     -0.97682750     -0.97670782     -0.97660243
      -0.97639455     -0.97635091     -0.97628176     -0.97618670
      -0.97614403     -0.97602594     -0.97573525     -0.97569833
      -0.97564756     -0.97548534     -0.97536283     -0.97506860
      -0.97477612     -0.97463669     -0.97455494     -0.97434438
      -0.97426936     -0.97404262     -0.97399768     -0.97397306
      -0.97387351     -0.97349971     -0.97322456     -0.97304281
      -0.97300287     -0.97265199     -0.97223875     -0.97214742
      -0.97199945     -0.97191356     -0.97169577     -0.97014895
      -0.41121620     -0.40463271     -0.40363400     -0.40290052
      -0.40176803     -0.39796887     -0.39671702     -0.39620033
      -0.39428266     -0.39408552     -0.39391698     -0.39261455
      -0.39228671     -0.39176722     -0.39089597     -0.39071583
      -0.39009183     -0.38889840     -0.38789995     -0.38628838
      -0.38469608     -0.38405820     -0.38339930     -0.38258924
      -0.38243256     -0.38164686     -0.38106478     -0.38034693
      -0.37942261     -0.37900821     -0.37873226     -0.37855188
      -0.37755766     -0.37707283     -0.37683674     -0.37636278
      -0.37619475     -0.37576476     -0.37510574     -0.37464911
      -0.37408858     -0.37340785     -0.37286220     -0.37241489
      -0.37235543     -0.37174739     -0.37138243     -0.37066982
      -0.37061961     -0.36965899     -0.36910775     -0.36887865
      -0.36808289     -0.36747408     -0.36711473     -0.36673103
      -0.36621873     -0.36502415     -0.36408025     -0.36332803
      -0.36305666     -0.36276890     -0.36017841     -0.35785829
      -0.35250852     -0.34921403     -0.34695893     -0.34571219
      -0.34389119     -0.34342322     -0.34122074     -0.34007797
      -0.33967365     -0.33882634     -0.33819964     -0.33781146
      -0.33731584     -0.33699412     -0.33663127     -0.33551926
      -0.33501064     -0.33421141     -0.33409023     -0.33397833
      -0.33221055     -0.33167229     -0.33135348     -0.33096901
      -0.33029589     -0.32992535     -0.32941876     -0.32894568
      -0.32820981     -0.32776585     -0.32741761     -0.32694957
      -0.32601043     -0.32568011     -0.32521293     -0.32461097
      -0.32406130     -0.32401021     -0.32378103     -0.32363888
      -0.32333108     -0.32281448     -0.32251301     -0.32231567
      -0.32195396     -0.32141056     -0.32133787     -0.32094085
      -0.32050662     -0.32028931     -0.32020890     -0.31996302
      -0.31965813     -0.31937861     -0.31921000     -0.31844551
      -0.31825847     -0.31781605     -0.31734450     -0.31697210
      -0.31639800     -0.31583075     -0.31571140     -0.31411916
      -0.04820126     -0.04675030     -0.04635480     -0.04447769
      -0.04377821     -0.04318377     -0.04214424     -0.04108606
      -0.04022279     -0.03967733     -0.03923544     -0.03920446
      -0.03819485     -0.03727478     -0.03629289     -0.03496305
      -0.03400012     -0.03312984     -0.03213865     -0.03139421
      -0.03065002     -0.02994351     -0.02978612     -0.02923557
      -0.02840017     -0.02758096     -0.02734924     -0.02673171
      -0.02656711     -0.02541686     -0.02483408     -0.02439983
      -0.02403474     -0.02369448     -0.02287872     -0.02250167
      -0.02201126     -0.02187977     -0.02117128     -0.02047369
      -0.01973679     -0.01903568     -0.01878080     -0.01831828
      -0.01769254     -0.01718720     -0.01625940     -0.01578692
      -0.01542804     -0.01525083     -0.01480354     -0.01472645
      -0.01434293     -0.01375439     -0.01342862     -0.01291639
      -0.01279028     -0.01267963     -0.01187591     -0.01180393
      -0.01146460     -0.01078519     -0.01034826     -0.01003034
      -0.00972963     -0.00946766     -0.00884143     -0.00873648
      -0.00863251     -0.00792710     -0.00763206     -0.00730342
      -0.00704944     -0.00679635     -0.00657140     -0.00634759
      -0.00533006     -0.00500824     -0.00467623     -0.00444251
      -0.00366416     -0.00331335     -0.00300123     -0.00260114
      -0.00215457     -0.00203452     -0.00105234     -0.00073792
      -0.00000885      0.00073631      0.00097804      0.00119541
       0.00141524      0.00171202      0.00204984      0.00249296
       0.00298805      0.00404820      0.00429341      0.00455656
       0.00479438      0.00501247      0.00513216      0.00634069
       0.00668152      0.00714646      0.00746307      0.00750079
       0.00790612      0.00832506      0.00870561      0.00892217
       0.00909469      0.00964987      0.01008508      0.01021387
       0.01056778      0.01119029      0.01175210      0.01187258
       0.01204213      0.01286026      0.01312908      0.01336141
       0.01345503      0.01398113      0.01449092      0.01485660
       0.01510750      0.01586682      0.01607511      0.01697650
       0.01737598      0.01773991      0.01833781      0.01867316
       0.01949273      0.01987993      0.02044083      0.02144159
       0.02270173      0.02321805      0.02392454      0.02409283
       0.02480623      0.02523673      0.02622754      0.02650235
       0.02698736      0.02733518      0.02756019      0.02810950
       0.02823336      0.02890893      0.02979471      0.03036410
       0.03080010      0.03182390      0.03222474      0.03368366
       0.03453724      0.03494056      0.03678663      0.03751340
       0.03803528      0.03927793      0.03987717      0.04055673
       0.04102967      0.04160602      0.04270649      0.04300554
       0.04354261      0.04642722      0.04788447      0.04837615
       0.04886224      0.04925186      0.05022515      0.05202425
       0.05341487      0.05366479      0.05789719      0.05900962
       0.05985329      0.06067035      0.06310635      0.06354005
       0.06672973      0.06725658      0.06917635      0.06985318
       0.07002354      0.07056270      0.07098376      0.07184987
       0.07260761      0.07330598      0.07460278      0.07505785
       0.07689217      0.07743569      0.07761548      0.07830987
       0.07901040      0.07928521      0.07969321      0.08019331
       0.08159712      0.08631201      0.08789947      0.08931501
       0.09044438      0.09157266      0.09222649      0.09347201
       0.09452987      0.09545356      0.09778549      0.09821429
       0.09916697      0.09992635      0.10014008      0.10110121
       0.10310151      0.10353711      0.10441602      0.10532686
       0.10646307      0.10794247      0.10829369      0.10873779
       0.10901235      0.10998882      0.11049275      0.11156431
       0.11223744      0.11356045      0.11405949      0.11512515
       0.11556843      0.11628555      0.11681112      0.11726396
       0.11870136      0.12102004      0.12160777      0.12320646
       0.12347776      0.12457007      0.12502460      0.12523385
       0.12595280      0.12701212      0.12733459      0.12887896
       0.12900288      0.13032110      0.13096201      0.13189454
       0.13215587      0.13330490      0.13351631      0.13486030
       0.13503406      0.13512765      0.13605622      0.13650464
       0.13704757      0.13824719      0.13839134      0.13927156
       0.13933557      0.13963437      0.14135899      0.14237201
       0.14295800      0.14395221      0.14482700      0.14543569
       0.14688659      0.14696591      0.14898314      0.14946107
       0.15053988      0.15106780      0.15186750      0.15215852
       0.15324171      0.15448537      0.15553442      0.15583922
       0.15633787      0.15692438      0.15735226      0.15839920
       0.15862763      0.15973974      0.16098296      0.16149685
       0.16195749      0.16239883      0.16371926      0.16412228
       0.16501695      0.16590707      0.16687318      0.16702652
       0.16743944      0.16780103      0.16894189      0.16931950
       0.17018784      0.17064368      0.17197239      0.17238783
       0.17256428      0.17292259      0.17383629      0.17469059
       0.17506359      0.17545960      0.17674379      0.17728312
       0.17820478      0.17870000      0.17897459      0.17959639
       0.18234314      0.18274658      0.18387637      0.18433139
       0.18642446      0.18700052      0.18834815      0.18865006
