     192
 i =       15, E =     -5769.5551968125
Ti         0.0051215364        0.0073690002        0.0016798757
Ti         1.8849233787        1.8883996518        4.8096005429
Ti         0.0073824960        1.8804021434        2.3992580884
Ti         1.8875505589       -0.0011778285        7.2225093483
Ti         0.0110869774        3.7737661617        0.0021725252
Ti         1.8889725354       13.2403663893        4.8002213356
Ti        11.3570994632        1.8801050805        2.4019431839
Ti         5.6688775300        0.0070771348        7.2236555751
Ti         1.8839544278        3.7749528940        7.2139134035
Ti         0.0037031326       13.2304147786        2.4087300910
Ti         5.6653087648        1.8828856985        4.8015322367
Ti        11.3506368398       -0.0025286969       -0.0063251703
Ti         3.7753669185        0.0015102974       -0.0006159988
Ti        13.2381747311        1.8850170731        4.8208156420
Ti        13.2290086516        0.0074781591        7.2170415692
Ti         3.7761894505        1.8817101820        2.4004973389
Ti         1.8838080026        5.6626150913        4.8049149658
Ti         0.0025910990       11.3566602342        0.0119465151
Ti         0.0095237685        5.6632343575        2.3950241270
Ti         1.8877605892       11.3553553235        7.2127237593
Ti         0.0122528022        7.5655168062        0.0198816419
Ti         1.8872615185        9.4513736610        4.8054871554
Ti         7.5693431031        1.8839860713        2.4127306864
Ti         9.4606480160        0.0029963266        7.2079756362
Ti         1.8831485563        7.5757587118        7.1996860549
Ti         0.0053343212        9.4642507291        2.4130563107
Ti         9.4585401163        1.8814820145        4.8180958144
Ti         7.5636631145        0.0000578645       -0.0103038056
Ti         3.7737299589        3.7739402194        0.0129307388
Ti        13.2346652056       13.2287221725        4.8133006063
Ti        11.3527911008        5.6741195120        2.4165722541
Ti         5.6681943755       11.3602737323        7.2174788053
Ti        13.2421169945        3.7754955994        7.2160026272
Ti         3.7769686332       13.2384865455        2.4060161221
Ti         5.6649071252        5.6718486584        4.8043596277
Ti        11.3508088937       11.3578772081       -0.0013370275
Ti        11.3533208025       13.2308862149        2.4147154427
Ti         5.6599331630        3.7702482861        7.2185968996
Ti         3.7766083594       11.3564501254        0.0108076654
Ti        13.2391962982        5.6658199036        4.8226109311
Ti         5.6672787213       13.2280492869        4.7958957609
Ti        11.3605399913        3.7644843000       -0.0105388763
Ti        13.2358877794       11.3600674021        7.2040064677
Ti         3.7803149259        5.6635496647        2.3909941653
Ti         3.7804640595        7.5724822736        0.0157448669
Ti        13.2331155420        9.4607003831        4.8016022913
Ti         7.5697274250        5.6680785806        2.4059079528
Ti         9.4619482970       11.3548212171        7.2066493501
Ti        13.2274220405        7.5726499611        7.1966452040
Ti         3.7780409909        9.4629447104        2.4048630354
Ti         9.4561352867        5.6747033577        4.8204093127
Ti         7.5717861146       11.3562086963       -0.0036479245
Ti        11.3511624272        9.4579311755        2.4151467801
Ti         5.6699492150        7.5742980917        7.2166662585
Ti         5.6625052206        9.4625821382        4.7918286830
Ti        11.3492110792        7.5954400719        0.0003413783
Ti         9.4665912635        3.7790496061        7.1896836395
Ti         7.5692214783       13.2363478631        2.4156967782
Ti         7.5469868112        3.7760703472        0.0011164611
Ti         9.4586504932       13.2287298086        4.8056702464
Ti         7.5681747369        7.5774251678        0.0006486124
Ti         9.4576117326        9.4610340340        4.8048389656
Ti         7.5747600911        9.4612661474        2.4144019649
Ti         9.4589944860        7.5808023822        7.2013886719
O        -0.0050726949        0.0027349079        1.9791596656
O         1.8857105758        1.8831260221        6.8069709145
O         0.0028147971        1.8827375492        4.3787142946
O         1.8838411032       -0.0020768887        9.2050644321
O         1.8879676509        0.0077638864        5.2441402524
O        -0.0039025313        1.8875443089        0.4153060754
O         1.8880495048        1.8881790257        2.8195228665
O         0.0033555505       -0.0051038909        7.6399613248
O        -0.0052980320        3.7742979122        1.9606414124
O         1.8797388509       13.2333817075        6.7765442828
O        11.3520778253        1.8967212017        4.3913093595
O         5.6767420789        0.0041379073        9.2017575447
O         1.8926804015        3.7746423253        5.2628068023
O         0.0060401311       13.2376085039        0.4339964839
O         5.6768484145        1.8879213888        2.8154268921
O        11.3514620925       -0.0070370105        7.6282695411
O         3.7751497893       -0.0006563377        7.6550750367
O        13.2349770677        1.8902398694        2.8402711482
O        13.2349746016        0.0029632048        9.1963771373
O         3.7737766033        1.8868856575        4.3579869658
O         1.8889123379        5.6797686744        6.7970430180
O         0.0036525042       11.3530997952        1.9978889636
O        -0.0016618435        5.6803984781        0.4133125402
O         1.8783193614       11.3518739983        5.2141727080
O        -0.0168565802        7.5608550258        1.9968902833
O         1.8851959559        9.4683387118        6.7649099461
O         7.5602296432        1.8847458033        4.3958233873
O         9.4605811755        0.0016634262        9.1693837951
O         1.8885480996        7.5531648509        5.2219589259
O        -0.0094704442        9.4623379917        0.4529747372
O         9.4664251047        1.8964293547        2.8504386702
O         7.5610910311       -0.0067605402        7.6263323749
O         3.7702511289        0.0059457737        1.9787019559
O        13.2402040269        1.8876285571        6.8003713596
O         0.0047447450        5.6568830121        4.3833654542
O         1.8840393543       11.3495255410        9.2046070812
O        13.2419412547        0.0027075549        5.2367922090
O         3.7711450240        1.8843091199        0.4172848034
O         1.8902712214        5.6462716958        2.8162699011
O         0.0013665201       11.3435187213        7.6473689825
O        11.3546076687        1.8791415133        0.4130353630
O         5.6515870241        0.0000024532        5.2387293945
O         5.6482843198        1.8847650063        6.7956976980
O        11.3521473160       -0.0002450589        1.9775568724
O         1.8897022455        3.7777144887        9.1923937402
O         0.0054339025       13.2406888201        4.3877179943
O         0.0048169986        3.7670984448        7.6333905594
O         1.8845462604       13.2413179092        2.8173097137
O         3.7666972270        3.7698516966        1.9700884826
O        13.2407294395       13.2388727306        6.7870572192
O        11.3537440222        5.6404725304        4.4002832810
O         5.6792389421       11.3450518514        9.2016837709
O        13.2309183881        3.7757583383        5.2539192052
O         3.7709753410       13.2340978484        0.4267091743
O         5.6796523154        5.6563572553        2.8200324529
O        11.3553197581       11.3537243668        7.6253841083
O        11.3528430530       13.2337496613        0.4370974050
O         5.6533058358        3.7779707402        5.2576418953
O         3.7764700330       11.3552557890        7.6652418362
O        13.2361879070        5.6550549911        2.8319216050
O         5.6490667131       13.2379343309        6.7838684075
O        11.3495726676        3.7820947828        1.9540976003
O        13.2344927537       11.3443917511        9.1866003810
O         3.7726560556        5.6492807465        4.3579777834
O         5.6561981491        5.6767648119        6.8063676203
O        11.3621947392       11.3466260814        1.9958701005
O        13.2409156840        3.7735688793        9.1956053583
O         3.7752032280       13.2458421684        4.3661894083
O        11.3482917880        5.6792897539        0.3992168064
O         5.6532616518       11.3493540220        5.2295321496
O         3.7698852917        3.7738527098        7.6599606852
O        13.2321712656       13.2426198390        2.8356284008
O        13.2335314830       11.3496842308        5.2172351529
O         3.7662577519        5.6796434584        0.4070523267
O         5.6795602037       13.2330770652        2.8182402236
O        11.3510922239        3.7693284719        7.6216770974
O         3.7684783944       11.3526375963        1.9944924390
O        13.2301872311        5.6808987810        6.8023939709
O        11.3510157089       13.2477865585        4.3991690857
O         5.6704083377        3.7694445309        9.1952736828
O         3.7781054394        7.5574838743        1.9985112409
O        13.2486221618        9.4654242315        6.7647128588
O         7.5579649859        5.6423771204        4.3948640019
O         9.4636632350       11.3564438558        9.1689256374
O        13.2501739389        7.5593652106        5.2191379552
O         3.7679637500        9.4625605591        0.4430670378
O         9.4657522861        5.6469374123        2.8543487275
O         7.5580727387       11.3451811611        7.6274816730
O        11.3556656181        9.4721524791        0.4567820679
O         5.6492678221        7.5605448995        5.2320318902
O         5.6632013624        9.4673719425        6.7571899846
O        11.3500461805        7.5547412757        1.9814485893
O         9.4566749435        3.7798016698        9.1762453137
O         7.5610762456       13.2435206554        4.3967893224
O         7.5660613826        3.7765198297        7.6226699681
O         9.4641327094       13.2466077048        2.8457911143
O         7.5903519636        0.0061936237        1.9750496314
O         9.4684829852        1.8838197265        6.8066591052
O         0.0015496046        9.4710212193        4.3909018739
O         1.8900926116        7.5854375332        9.1921064632
O         9.4693424413       -0.0005104021        5.2261740839
O         7.6061648339        1.8870515877        0.4162444085
O         1.8848212220        9.4765139413        2.8169937877
O        -0.0023419202        7.5893828776        7.6461808037
O         7.5880492656        3.7736792907        1.9606636081
O         9.4716264287       13.2353622630        6.7825895881
O        11.3499867520        9.4735930008        4.4010639842
O         5.6784035882        7.5893080582        9.2020196496
O         9.4702812973        3.7741709466        5.2351776859
O         7.5944495255       13.2337103370        0.4297518487
O         5.6817932055        9.4667032285        2.8085362324
O        11.3499406770        7.5766841788        7.6270327182
O         3.7719294394        7.5831687547        7.6557660766
O        13.2333147568        9.4680686339        2.8218051234
O        13.2356626096        7.5739441979        9.1932225064
O         3.7719058144        9.4698498335        4.3671473141
O         9.4678673236        5.6823552664        6.8077038553
O         7.5798765897       11.3539880929        1.9915420442
O         7.6019721827        5.6800163740        0.4076172325
O         9.4698266681       11.3481247067        5.2184201820
O         7.5916018618        7.5598155170        1.9868708104
O         9.4672700907        9.4649130285        6.7648627027
O         7.5590232880        9.4639532665        4.3976199202
O         9.4618822046        7.5700746629        9.1732212740
O         9.4682273363        7.5612062252        5.2183048031
O         7.5793803799        9.4673682308        0.4512309254
O         9.4679245280        9.4594600932        2.8428570095
O         7.5604215840        7.5830730942        7.6264461073
     192
 i =       16, E =     -5769.5592184903
Ti         0.0057142411        0.0071947579        0.0016006646
Ti         1.8871680017        1.8896095361        4.8095415809
Ti         0.0073026110        1.8753138296        2.4029127929
Ti         1.8886833484       -0.0051641429        7.2218404937
Ti         0.0119093337        3.7689645993        0.0036847448
Ti         1.8904348705       13.2454994189        4.7988904715
Ti        11.3594250364        1.8793810819        2.4012140845
Ti         5.6676371380        0.0095649240        7.2214399482
Ti         1.8849534360        3.7734264135        7.2133795632
Ti         0.0047993637       13.2266088853        2.4122351326
Ti         5.6631690124        1.8823528169        4.7988405956
Ti        11.3479148931       -0.0074580435       -0.0016294066
Ti         3.7740957547        0.0007041171       -0.0021051575
Ti        13.2440613431        1.8882832366        4.8244097475
Ti        13.2218549294        0.0076108880        7.2196863156
Ti         3.7745042802        1.8765493834        2.4040013355
Ti         1.8853409583        5.6568554427        4.7969529089
Ti         0.0012757045       11.3567799389        0.0124160671
Ti         0.0089197675        5.6582720115        2.3969298131
Ti         1.8910821006       11.3538899554        7.2123989092
Ti         0.0155305639        7.5595570784        0.0281966668
Ti         1.8917227037        9.4436177024        4.8078064481
Ti         7.5719934664        1.8851439609        2.4169179020
Ti         9.4599114020        0.0028813033        7.2023023024
Ti         1.8864148105        7.5776450460        7.1937282621
Ti         0.0057234584        9.4683707005        2.4210757227
Ti         9.4565099914        1.8799412997        4.8139175569
Ti         7.5600102447       -0.0018947803       -0.0104518947
Ti         3.7661453325        3.7716061318        0.0237685488
Ti        13.2350405527       13.2267696958        4.8175247489
Ti        11.3507932945        5.6756741447        2.4384057783
Ti         5.6676417172       11.3626641541        7.2190953234
Ti        13.2492833671        3.7739289783        7.2213841733
Ti         3.7769229420       13.2416841179        2.4088836473
Ti         5.6629816837        5.6751591021        4.8007129409
Ti        11.3490032623       11.3576929074       -0.0020570985
Ti        11.3562007755       13.2335773192        2.4174765968
Ti         5.6536091366        3.7666174995        7.2176846374
Ti         3.7754876097       11.3603126587        0.0143622209
Ti        13.2460963767        5.6626832699        4.8261014664
Ti         5.6664369216       13.2253345234        4.7960718770
Ti        11.3681965016        3.7543284672       -0.0170414403
Ti        13.2391540093       11.3617245633        7.2054353203
Ti         3.7818074648        5.6620138373        2.3917584926
Ti         3.7802368613        7.5730606283        0.0165717900
Ti        13.2344764028        9.4628981352        4.7967657605
Ti         7.5709596722        5.6678537409        2.4120144642
Ti         9.4626986784       11.3558086631        7.2064381270
Ti        13.2259605565        7.5738122022        7.1951103229
Ti         3.7784775231        9.4652017855        2.4054547061
Ti         9.4502141509        5.6821007771        4.8189736270
Ti         7.5738856758       11.3592181798       -0.0029266084
Ti        11.3482763853        9.4577791635        2.4146884765
Ti         5.6727934463        7.5748459461        7.2194471560
Ti         5.6579431775        9.4652396466        4.7925223608
Ti        11.3437583860        7.6183943949       -0.0033187460
Ti         9.4715132088        3.7832125591        7.1650543627
Ti         7.5688697141       13.2382011543        2.4148556672
Ti         7.5246289079        3.7752736115        0.0079139281
Ti         9.4573585497       13.2282293611        4.8004858132
Ti         7.5670787606        7.5806188992        0.0025579325
Ti         9.4557968414        9.4634981658        4.8010801031
Ti         7.5761919465        9.4603963975        2.4116951711
Ti         9.4576933937        7.5903343939        7.2022279596
O        -0.0044506802        0.0054208942        1.9848705791
O         1.8843622187        1.8840003457        6.8170660782
O         0.0039752731        1.8826879191        4.3837761247
O         1.8834842444       -0.0020774643        9.2074478909
O         1.8902780807        0.0091298323        5.2445719367
O         0.0013121353        1.8881511625        0.4137835606
O         1.8880547829        1.8876395882        2.8165896947
O         0.0021399601       -0.0063549699        7.6343347350
O        -0.0024456295        3.7766762920        1.9662019065
O         1.8800652219       13.2318043433        6.7710656777
O        11.3525460880        1.8982340168        4.3927566490
O         5.6766884470        0.0050400825        9.2019809267
O         1.8940903541        3.7727661570        5.2693713203
O         0.0069952662       13.2353592578        0.4348408864
O         5.6752757516        1.8866377192        2.8091463405
O        11.3512314191       -0.0100976723        7.6321552695
O         3.7737689020       -0.0039001306        7.6487973779
O        13.2331342807        1.8897791944        2.8410357040
O        13.2350743875        0.0021484009        9.2071927552
O         3.7759865226        1.8849853314        4.3584969538
O         1.8873424577        5.6777515852        6.7994728959
O         0.0026798968       11.3557718461        2.0048618472
O         0.0048559829        5.6824085341        0.4120350997
O         1.8804934655       11.3526084411        5.2040887987
O        -0.0207421020        7.5626805942        2.0025136756
O         1.8871224943        9.4674680110        6.7653524185
O         7.5614534895        1.8807707683        4.3994662549
O         9.4595895463       -0.0022954934        9.1716126516
O         1.8894392448        7.5506587208        5.2191725518
O        -0.0096499186        9.4596116732        0.4567241625
O         9.4673822514        1.8993108038        2.8402663873
O         7.5614984178       -0.0107056432        7.6245874309
O         3.7704450768        0.0059056858        1.9795701468
O        13.2409474416        1.8882018105        6.8026871245
O         0.0092371701        5.6543279138        4.3932526554
O         1.8837167666       11.3511974858        9.2088074872
O        13.2405832388        0.0070397061        5.2297900055
O         3.7688419306        1.8855707045        0.4192506798
O         1.8893420007        5.6433612576        2.8085815565
O        -0.0009195749       11.3438962728        7.6482972418
O        11.3573405869        1.8774439482        0.4089480709
O         5.6509699389        0.0007360224        5.2353137123
O         5.6453464625        1.8857768044        6.8008436940
O        11.3518236652        0.0015825139        1.9892095917
O         1.8874947711        3.7805689443        9.1902120445
O         0.0049053692       13.2418721910        4.3979946885
O         0.0053208452        3.7646776325        7.6233086676
O         1.8858234393       13.2451135929        2.8137781959
O         3.7664904397        3.7679507409        1.9805799557
O        13.2419161958       13.2360619621        6.7920300203
O        11.3548647618        5.6455155019        4.4066076837
O         5.6790985881       11.3448482225        9.2065645330
O        13.2355983514        3.7790011821        5.2515751566
O         3.7719369578       13.2341293568        0.4264019670
O         5.6820346996        5.6589908449        2.8187240601
O        11.3562901552       11.3555869732        7.6233901321
O        11.3530314965       13.2305157783        0.4403652072
O         5.6486222493        3.7810263517        5.2595766880
O         3.7782396971       11.3588545436        7.6682936771
O        13.2331613496        5.6558328632        2.8270573533
O         5.6484788627       13.2355260463        6.7918699469
O        11.3520090692        3.7912126812        1.9492506995
O        13.2351532067       11.3460970896        9.1918058901
O         3.7739797239        5.6459789465        4.3597357958
O         5.6563931947        5.6743916055        6.8185996597
O        11.3606216311       11.3461637485        2.0073212886
O        13.2437647213        3.7713821930        9.2009157718
O         3.7758614812       13.2487316205        4.3757056088
O        11.3465515555        5.6768372635        0.3777847005
O         5.6523189287       11.3511105687        5.2300730592
O         3.7694734623        3.7711413156        7.6588920285
O        13.2320682770       13.2410043462        2.8331986686
O        13.2313826149       11.3529658419        5.2104925770
O         3.7661673414        5.6799381926        0.4079354515
O         5.6804484675       13.2324813896        2.8188107238
O        11.3463351062        3.7635114651        7.6169378941
O         3.7680263668       11.3514838773        1.9986534148
O        13.2300600656        5.6830117562        6.8050738543
O        11.3491739910       13.2472389386        4.4046366249
O         5.6636121884        3.7651057226        9.1946521575
O         3.7839717406        7.5553818457        2.0001285666
O        13.2475049152        9.4622059853        6.7672956103
O         7.5569412823        5.6427427123        4.4015116895
O         9.4637827684       11.3568546843        9.1721110473
O        13.2519905009        7.5599936935        5.2177588096
O         3.7661631101        9.4588913805        0.4414732047
O         9.4681914179        5.6510493115        2.8533908494
O         7.5570562429       11.3454687729        7.6266649324
O        11.3509993287        9.4702580931        0.4563380136
O         5.6460925645        7.5591060350        5.2355321733
O         5.6719972680        9.4660121880        6.7576784337
O        11.3484784217        7.5463359126        1.9781987345
O         9.4536536305        3.7855057494        9.1908212353
O         7.5645815938       13.2425620387        4.4000344699
O         7.5743300663        3.7755598234        7.6149896340
O         9.4645131176       13.2443272513        2.8333916391
O         7.5858096691        0.0088362357        1.9787705278
O         9.4706477872        1.8822144695        6.8070556237
O         0.0011826901        9.4712841122        4.3977984312
O         1.8888034048        7.5875531552        9.1924088852
O         9.4698758478        0.0020072189        5.2149917718
O         7.6066169453        1.8916804138        0.4118824277
O         1.8830688010        9.4739972685        2.8116008659
O        -0.0018079302        7.5922138720        7.6489580471
O         7.5783277845        3.7762468839        1.9623354316
O         9.4714995936       13.2335605234        6.7757670153
O        11.3496373494        9.4719419625        4.4046814270
O         5.6776576766        7.5929417168        9.2062692610
O         9.4700076806        3.7733997749        5.2179088654
O         7.5937396028       13.2344961247        0.4247193669
O         5.6844366541        9.4667625311        2.8071164613
O        11.3494697300        7.5815318925        7.6222850874
O         3.7733750910        7.5867159605        7.6441821123
O        13.2293809917        9.4677614791        2.8146580941
O        13.2293810771        7.5668228274        9.2089475516
O         3.7728131101        9.4711606560        4.3703695962
O         9.4677941336        5.6864547207        6.8078573192
O         7.5788081459       11.3546642605        2.0003420694
O         7.5992393322        5.6780832296        0.4011730480
O         9.4689049995       11.3478179367        5.2106014957
O         7.5931489584        7.5586600939        1.9895394186
O         9.4672030202        9.4620993598        6.7631500204
O         7.5607009246        9.4624115256        4.3969804106
O         9.4605289476        7.5618008035        9.1856061524
O         9.4671972142        7.5620115039        5.2149860089
O         7.5794756804        9.4676883316        0.4494773624
O         9.4698390936        9.4533374394        2.8338685796
O         7.5619420219        7.5885829876        7.6235087985
     192
 i =       17, E =     -5769.5609232829
Ti         0.0054900807        0.0066299973        0.0019003504
Ti         1.8870596025        1.8884698426        4.8081869534
Ti         0.0085108174        1.8695362826        2.4062758289
Ti         1.8884129387       -0.0060529954        7.2194183070
Ti         0.0111858753        3.7660935440        0.0079897007
Ti         1.8900314079       13.2444363262        4.8015310965
Ti        11.3625831001        1.8817789644        2.4021053324
Ti         5.6671664238        0.0128185012        7.2188347460
Ti         1.8852278142        3.7712083167        7.2108263180
Ti         0.0047825851       13.2205492986        2.4135556546
Ti         5.6626292381        1.8811610308        4.7984610261
Ti        11.3465045030       -0.0070642947        0.0023245588
Ti         3.7729231599       -0.0000680064       -0.0036328044
Ti        13.2453586800        1.8876613823        4.8267033035
Ti        13.2175964375        0.0092112710        7.2196783816
Ti         3.7745492318        1.8731592662        2.4066323231
Ti         1.8839099184        5.6549252354        4.7964551887
Ti         0.0011799013       11.3580658396        0.0107779130
Ti         0.0099518043        5.6557338189        2.3962549126
Ti         1.8932215687       11.3531453246        7.2135726584
Ti         0.0186232714        7.5578193862        0.0313956984
Ti         1.8935922793        9.4408646627        4.8106197163
Ti         7.5738443367        1.8854182216        2.4165957673
Ti         9.4590714973        0.0053529352        7.2007200142
Ti         1.8854607501        7.5767389420        7.1940614441
Ti         0.0087211131        9.4675013515        2.4220704724
Ti         9.4558787622        1.8782263880        4.8067132061
Ti         7.5582129590       -0.0024936919       -0.0111133350
Ti         3.7622997439        3.7696190845        0.0295835429
Ti        13.2365756572       13.2216501444        4.8196819456
Ti        11.3522234212        5.6752084593        2.4506887753
Ti         5.6681730741       11.3647693080        7.2203911808
Ti        13.2521543691        3.7742999192        7.2227877836
Ti         3.7758469525       13.2426793687        2.4126714745
Ti         5.6618087770        5.6765284760        4.7991368139
Ti        11.3478427658       11.3608092603       -0.0043713332
Ti        11.3596292729       13.2322355980        2.4178460820
Ti         5.6514035716        3.7683039454        7.2162201881
Ti         3.7743799539       11.3633973900        0.0137198186
Ti        13.2482506883        5.6610494400        4.8300620386
Ti         5.6671889753       13.2225401425        4.7978584615
Ti        11.3699446459        3.7506730570       -0.0169824470
Ti        13.2418679901       11.3636946383        7.2107482069
Ti         3.7826189431        5.6638641668        2.3922360011
Ti         3.7793942502        7.5738541534        0.0139526436
Ti        13.2345217099        9.4626670991        4.7970869238
Ti         7.5697348032        5.6674954745        2.4150831856
Ti         9.4634964625       11.3603400332        7.2079389407
Ti        13.2257084117        7.5764519291        7.1941613108
Ti         3.7792274078        9.4665054941        2.4050127470
Ti         9.4470221182        5.6876274068        4.8178831717
Ti         7.5736753579       11.3610433147       -0.0050332440
Ti        11.3491076837        9.4573390557        2.4130607593
Ti         5.6730567587        7.5733191956        7.2180900243
Ti         5.6562366214        9.4647758372        4.7958425591
Ti        11.3472653543        7.6282666969       -0.0044090526
Ti         9.4718760151        3.7866108842        7.1586753944
Ti         7.5680776062       13.2371938650        2.4121982517
Ti         7.5135026157        3.7741404331        0.0131862889
Ti         9.4583511467       13.2264473977        4.7930278300
Ti         7.5665738867        7.5801041730        0.0054245209
Ti         9.4551410367        9.4658197248        4.7962141333
Ti         7.5747865707        9.4598525186        2.4093277945
Ti         9.4577837462        7.5967767575        7.2044288245
O        -0.0036517815        0.0057139021        1.9894587938
O         1.8859297720        1.8836793341        6.8158064338
O         0.0033846711        1.8830676158        4.3882593019
O         1.8836997282       -0.0035629950        9.2065203521
O         1.8909882332        0.0081289010        5.2435777122
O         0.0004401067        1.8883361127        0.4142888116
O         1.8890396404        1.8870374299        2.8176804026
O         0.0012654370       -0.0068219673        7.6319116150
O        -0.0026595622        3.7773218526        1.9729286562
O         1.8809429615       13.2317731168        6.7688101586
O        11.3520863099        1.8988401003        4.3919951630
O         5.6762326354        0.0048592746        9.2006900954
O         1.8954262372        3.7700692286        5.2669041076
O         0.0067752113       13.2347235095        0.4365847841
O         5.6742248931        1.8859203178        2.8108037489
O        11.3523963776       -0.0112703036        7.6355973909
O         3.7724498472       -0.0044589749        7.6437562662
O        13.2350678054        1.8898786451        2.8417852903
O        13.2354153483        0.0003560025        9.2098626682
O         3.7766370555        1.8844535805        4.3596136789
O         1.8885873323        5.6750404493        6.8027339721
O         0.0032329489       11.3550085853        2.0054988716