     192
 i =       15, E =     -5769.5551968125
Ti        -0.0004200798        0.0001143435       -0.0004139068
Ti         0.0000998246        0.0001589450       -0.0012447931
Ti         0.0002926799       -0.0039902779        0.0010227171
Ti         0.0009232652       -0.0009371766       -0.0007984252
Ti        -0.0006360530       -0.0029539077        0.0013692189
Ti         0.0004202002        0.0010718949        0.0010990852
Ti         0.0007140902       -0.0031771029        0.0008080923
Ti        -0.0006014066        0.0014905782       -0.0009486376
Ti         0.0004110386       -0.0007203432       -0.0011659838
Ti         0.0001888546       -0.0034376273       -0.0004562263
Ti        -0.0014593437       -0.0012981072       -0.0012171128
Ti        -0.0010256880       -0.0006126407       -0.0006840652
Ti        -0.0007571460       -0.0007535583        0.0002592972
Ti         0.0025193852       -0.0003181225        0.0014095055
Ti        -0.0029696689        0.0004914726        0.0008532237
Ti        -0.0003087105       -0.0017619107        0.0014155082
Ti        -0.0009280240       -0.0013220747       -0.0035038086
Ti        -0.0008435170        0.0009712340       -0.0017037451
Ti         0.0003759911       -0.0032855591       -0.0008704478
Ti         0.0015815507       -0.0007264420        0.0005916781
Ti         0.0024132512       -0.0030788428        0.0026854302
Ti         0.0019375813       -0.0027853675        0.0022140108
Ti         0.0023552986       -0.0005091066        0.0022042069
Ti        -0.0008407556        0.0013618083       -0.0013351086
Ti         0.0019287736        0.0010475357       -0.0019945293
Ti         0.0015017724        0.0008223626        0.0020498639
Ti        -0.0010910822       -0.0007013496       -0.0000523015
Ti        -0.0010571044       -0.0019473729       -0.0005042569
Ti        -0.0018931061       -0.0013167734        0.0035995296
Ti         0.0011437863       -0.0026818250        0.0017701655
Ti        -0.0004722020        0.0001247980        0.0143655458
Ti        -0.0002054156        0.0020885022       -0.0004130201
Ti         0.0047716287       -0.0010301159        0.0025367524
Ti        -0.0008024376        0.0016375195       -0.0003730965
Ti        -0.0006039335        0.0014213511       -0.0035367063
Ti        -0.0007136459        0.0008454671       -0.0021979819
Ti         0.0011126191        0.0011255138       -0.0000771335
Ti        -0.0042640606       -0.0004593468       -0.0015549553
Ti        -0.0005623120        0.0025524114        0.0001159833
Ti         0.0021275553       -0.0023579325        0.0023038734
Ti        -0.0016990391       -0.0017372946       -0.0012213240
Ti         0.0021731577       -0.0023375923       -0.0012064063
Ti         0.0021192473        0.0019249148        0.0012460572
Ti         0.0001112889       -0.0000334306       -0.0002464164
Ti         0.0000323355        0.0011735996        0.0022723490
Ti         0.0011745479        0.0003320374       -0.0016711352
Ti        -0.0002938125       -0.0004864238        0.0029770422
Ti         0.0005544291        0.0015632525        0.0008001006
Ti        -0.0005575323        0.0008000077       -0.0036115952
Ti        -0.0002590954        0.0018858705       -0.0002545180
Ti        -0.0027650396        0.0028435036       -0.0005741951
Ti         0.0007952641        0.0014342673       -0.0010223181
Ti        -0.0008647070        0.0028600905       -0.0001359800
Ti        -0.0001150505        0.0002835357       -0.0002869242
Ti        -0.0031055890        0.0011655603        0.0009411504
Ti        -0.0002209474        0.0104563717       -0.0009544178
Ti         0.0011142086        0.0019030031       -0.0119886139
Ti         0.0003908717       -0.0000761090       -0.0002210175
Ti        -0.0073057845       -0.0008012973        0.0046620901
Ti        -0.0007248896       -0.0003820706        0.0009973100
Ti         0.0004530322        0.0013663030        0.0009045553
Ti        -0.0010517609        0.0014942872        0.0002591693
Ti        -0.0002051333       -0.0000094922       -0.0011194349
Ti        -0.0006477615        0.0042031794       -0.0014535024
O         0.0002458237        0.0040939176        0.0016315865
O        -0.0001704310        0.0017512449        0.0020736768
O        -0.0006581848        0.0001573822        0.0009218657
O         0.0002334144        0.0000482223        0.0007634114
O         0.0002085599       -0.0009669783        0.0001084518
O         0.0007882094        0.0012735062       -0.0012201311
O         0.0000138822       -0.0001638342       -0.0005332508
O         0.0006337655        0.0000144529       -0.0010220545
O         0.0005602456        0.0036656496        0.0011670900
O         0.0003310171        0.0004470366       -0.0011823447
O        -0.0007266096       -0.0003062896        0.0000067069
O         0.0011769730       -0.0001152341        0.0004910352
O        -0.0001246556       -0.0005873827        0.0014828023
O        -0.0002232894       -0.0017107641       -0.0002983221
O        -0.0010790318       -0.0002441052       -0.0006107847
O         0.0023421847       -0.0001080586        0.0001702263
O        -0.0009485109       -0.0004234093       -0.0014971896
O        -0.0012170549       -0.0002358656       -0.0006261310
O         0.0005337071       -0.0003072821        0.0021751705
O         0.0012706456       -0.0002679738       -0.0001658681
O        -0.0003386677       -0.0010446383        0.0017756957
O        -0.0003392029        0.0019748316        0.0018480369
O         0.0008622503        0.0036141649       -0.0004016862
O         0.0006210679        0.0011080655       -0.0014530386
O         0.0002400506        0.0007392152       -0.0009138926
O         0.0002765397       -0.0010946221       -0.0003522705
O         0.0014873970       -0.0004399932       -0.0000983085
O         0.0009271553       -0.0006224907        0.0014787543
O        -0.0000089307        0.0026217227        0.0003998707
O         0.0003618197       -0.0002204536       -0.0002328321
O        -0.0011878159       -0.0001025525       -0.0021993487
O         0.0003326798       -0.0002184444       -0.0001617943
O         0.0000582344        0.0000132216        0.0007325744
O         0.0000600932        0.0001599154       -0.0001615818
O         0.0012499045       -0.0005775419        0.0027987359
O         0.0003724952        0.0003496786        0.0006783323
O        -0.0002668384        0.0024094394       -0.0021250671
O        -0.0003177780        0.0018667482       -0.0003570169
O        -0.0012092658       -0.0001357467       -0.0003317202
O        -0.0024951419        0.0004439526        0.0004111698
O         0.0002237270        0.0023260450       -0.0011181574
O        -0.0001003009        0.0015463153       -0.0005278002
O        -0.0002312450        0.0004114678        0.0021155646
O        -0.0000310893        0.0010976597        0.0027783925
O        -0.0005463587        0.0000222521        0.0002965994
O        -0.0005018378        0.0001127009        0.0021239701
O        -0.0018641157       -0.0001248329       -0.0033688358
O         0.0007316598        0.0003913198       -0.0008361140
O         0.0001557119        0.0010270784        0.0005901386
O         0.0001052387       -0.0026280530        0.0007237680
O         0.0001005610        0.0011459906       -0.0043346351
O        -0.0001823843        0.0003113751        0.0008635429
O         0.0009694756        0.0016301228       -0.0021479899
O         0.0001271519       -0.0008815963       -0.0006921318
O         0.0009497628        0.0001073013        0.0006461618
O        -0.0006632585        0.0001786357        0.0001019245
O        -0.0000095935       -0.0005317718        0.0001986821
O        -0.0006839717        0.0004823630        0.0009476679
O         0.0000992237        0.0003134327       -0.0000011100
O        -0.0023186292       -0.0000738288       -0.0022393808
O         0.0000148263       -0.0027989239        0.0024245293
O         0.0004107724        0.0028897794       -0.0008969810
O         0.0008930542        0.0005786395        0.0011045811
O         0.0008128980       -0.0003250737        0.0007082427
O        -0.0002062399       -0.0005977665        0.0033147935
O        -0.0006390555       -0.0003278949        0.0028050082
O        -0.0013630995       -0.0003765237        0.0007307556
O         0.0002567511        0.0000627894        0.0022958788
O        -0.0000419295       -0.0042256087       -0.0078099273
O        -0.0002025400        0.0015776373       -0.0005037758
O         0.0014747329       -0.0004901694       -0.0028486682
O        -0.0007629979       -0.0003296917       -0.0015197040
O        -0.0000068349        0.0029042544       -0.0020140593
O         0.0001780885       -0.0000807821        0.0007731997
O         0.0003498534        0.0002071525        0.0005140653
O        -0.0036695656       -0.0006698371        0.0003927089
O         0.0000324407       -0.0018964046        0.0003082467
O         0.0004001363        0.0014069360       -0.0006000294
O        -0.0010388747       -0.0004517978        0.0007577220
O         0.0036902849       -0.0004962078        0.0009943664
O         0.0003811098       -0.0012411637       -0.0006739847
O        -0.0005665526       -0.0025270893        0.0016582549
O         0.0012427578        0.0004722538        0.0005404706
O         0.0001695942       -0.0001357791        0.0009271247
O        -0.0002804951        0.0002839331        0.0009096264
O        -0.0001071354       -0.0026471505       -0.0002893815
O         0.0021035582        0.0007279369       -0.0006175488
O        -0.0004222912        0.0003719631       -0.0000132134
O        -0.0007408660       -0.0067401005       -0.0016117190
O        -0.0003020991       -0.0019122754        0.0003037487
O         0.0005619509       -0.0014325203        0.0001120500
O        -0.0000786925       -0.0032390439       -0.0003346290
O         0.0028064444        0.0002694095        0.0080529368
O         0.0023203545       -0.0003203364        0.0007038882
O         0.0031391781       -0.0004206887       -0.0025078653
O        -0.0003643506       -0.0006231916       -0.0026341098
O        -0.0007085381        0.0002550819        0.0010638617
O         0.0002462244       -0.0010884173        0.0002529666
O        -0.0016914813       -0.0001269014        0.0001543425
O        -0.0016782815        0.0003596524        0.0014750944
O        -0.0000174788        0.0023453026       -0.0018584719
O        -0.0007871784        0.0032062788       -0.0019384699
O        -0.0014041655       -0.0007133712       -0.0019819997
O         0.0004045393        0.0002826621       -0.0003312784
O        -0.0012472562        0.0012661316       -0.0013529927
O        -0.0002055322       -0.0013011778       -0.0010321977
O         0.0001856384       -0.0004684010        0.0006219225
O        -0.0002094605        0.0003537361        0.0006136347
O        -0.0001586175       -0.0015942861        0.0011152547
O        -0.0004195113        0.0002663956       -0.0015641079
O         0.0006570526        0.0000659913        0.0001801544
O         0.0004837673        0.0010620998       -0.0006132241
O        -0.0000247598        0.0006337890       -0.0035490108
O        -0.0011709614       -0.0000714350       -0.0005580315
O        -0.0040433151       -0.0002823535        0.0043595949
O         0.0009046681        0.0000634263        0.0010680780
O        -0.0000025141       -0.0021592791       -0.0003843357
O         0.0002098752        0.0001975975        0.0021634050
O        -0.0010055555       -0.0017255675       -0.0021457436
O        -0.0002058273       -0.0001453872       -0.0019557585
O        -0.0000179200        0.0001009864        0.0004258133
O         0.0000191501       -0.0037934705        0.0006767015
O         0.0026948486       -0.0000038258       -0.0002795108
O         0.0011020098       -0.0002859064        0.0036867859
O        -0.0001338902       -0.0019428364       -0.0008000638
O         0.0003699178       -0.0014326760       -0.0001495027
O         0.0009748887       -0.0003894004       -0.0020750270
O         0.0003646253        0.0008674922       -0.0011585324
     192
 i =       16, E =     -5769.5592184903
Ti        -0.0007963960       -0.0004556940       -0.0003783319
Ti        -0.0004494691        0.0002228227        0.0000191200
Ti        -0.0005560015       -0.0028212966        0.0004488514
Ti        -0.0000823776        0.0001624555       -0.0008273315
Ti        -0.0006889526       -0.0010328953        0.0013745459
Ti        -0.0005255124       -0.0010779245        0.0016391518
Ti         0.0005799292        0.0008277613        0.0005962529
Ti         0.0000365869        0.0013299406       -0.0009996396
Ti         0.0008813398        0.0003310708       -0.0005468188
Ti        -0.0011030795       -0.0026494425       -0.0000671493
Ti        -0.0002075235       -0.0001167026       -0.0005632126
Ti        -0.0011542851        0.0009020244       -0.0003720772
Ti        -0.0005749763       -0.0001254505        0.0001313923
Ti        -0.0000347480       -0.0003716931        0.0007077869
Ti        -0.0014439529        0.0007705455        0.0003567549
Ti         0.0003439435       -0.0007512196        0.0005567646
Ti        -0.0006693202       -0.0006074936       -0.0007095791
Ti        -0.0004011258       -0.0007538332       -0.0009331002
Ti        -0.0008795629       -0.0006610602       -0.0015604463
Ti         0.0007214560       -0.0005217014       -0.0004674927
Ti         0.0011730155       -0.0009580932        0.0002206373
Ti         0.0007277450       -0.0006389907        0.0013868199
Ti         0.0027024858        0.0000311470        0.0005973712
Ti        -0.0011839951        0.0015914942       -0.0007566791
Ti         0.0001359186       -0.0010003829        0.0008918447
Ti         0.0010062517       -0.0009842317       -0.0000142623
Ti         0.0006818991       -0.0005042165       -0.0006596735
Ti         0.0001491925        0.0001813851       -0.0004048858
Ti        -0.0009842490       -0.0000630880        0.0008913650
Ti         0.0009408183       -0.0017045799        0.0004383864
Ti         0.0008301899       -0.0009796371        0.0076900316
Ti         0.0001063340        0.0006874199       -0.0000054473
Ti         0.0016912308        0.0003948341        0.0013045593
Ti        -0.0006189174        0.0007216759       -0.0002573301
Ti        -0.0005347853        0.0016063658        0.0003631090
Ti         0.0001753678        0.0011851388       -0.0007272679
Ti         0.0010565572       -0.0001822100        0.0002863510
Ti        -0.0009272581        0.0022771317       -0.0009270683
Ti        -0.0003509195        0.0006269782       -0.0002108379
Ti         0.0009516052       -0.0006088699        0.0020550850
Ti        -0.0007877707       -0.0011758649       -0.0007232118
Ti        -0.0039157782        0.0024871760        0.0005281484
Ti         0.0015852694       -0.0004485240        0.0006654706
Ti         0.0001834758        0.0009291838       -0.0007621602
Ti        -0.0013629080        0.0009040574        0.0001393441
Ti         0.0002188588       -0.0007722137       -0.0000229007
Ti        -0.0004448865       -0.0003357151        0.0010795913
Ti         0.0003994294        0.0015144816       -0.0000277664
Ti         0.0012216987        0.0005582924       -0.0008107762
Ti        -0.0001684961        0.0002749147       -0.0007988850
Ti        -0.0012065652        0.0022442955        0.0006735734
Ti        -0.0004083697        0.0006576096       -0.0006958787
Ti         0.0000236371        0.0015953229        0.0008722828
Ti        -0.0014243173       -0.0013205980       -0.0010722054
Ti        -0.0012920839       -0.0004654940        0.0011387019
Ti         0.0028672865        0.0013321318       -0.0002852210
Ti        -0.0014612052        0.0019404220       -0.0051225005
Ti         0.0010136710       -0.0004009743       -0.0000724459
Ti        -0.0010161314        0.0000028759        0.0000769552
Ti         0.0000071957       -0.0003218624        0.0007677206
Ti         0.0004026908       -0.0006148752        0.0008500684
Ti        -0.0007350953        0.0007760743       -0.0003586916
Ti        -0.0004270990       -0.0001644301       -0.0003709381
Ti         0.0002653199        0.0015748752       -0.0013430831
O         0.0001816022        0.0025655398        0.0008482619
O         0.0002953617       -0.0002377057       -0.0017428355
O         0.0002864237        0.0001458719        0.0005651599
O         0.0009258607       -0.0002035103       -0.0002230739
O        -0.0000253636        0.0000967314        0.0002632747
O        -0.0002875744        0.0007816597       -0.0001666949
O        -0.0000227917       -0.0001122473        0.0011696540
O         0.0003850825        0.0000685255        0.0000101512
O        -0.0000502105        0.0015509774        0.0006183769
O         0.0002713292        0.0004180692       -0.0010606804
O        -0.0006281627       -0.0002246102       -0.0005213898
O         0.0000403993       -0.0001870097       -0.0000301202
O        -0.0000083918       -0.0010416585       -0.0014498597
O        -0.0002426423       -0.0000583548        0.0005692308
O        -0.0011016121       -0.0000967094        0.0018165813
O         0.0018798299        0.0000884643        0.0003383792
O        -0.0004759199        0.0000418722       -0.0006486323
O         0.0009706514       -0.0000624932       -0.0002508141
O         0.0006538800       -0.0003386032       -0.0004704039
O         0.0000113215       -0.0000097871       -0.0001288959
O         0.0001874490       -0.0007524533        0.0003889995
O         0.0000122168        0.0011303570       -0.0002188202
O        -0.0004284079        0.0007879232        0.0009870788
O         0.0003145396        0.0003604276        0.0024545640
O         0.0005303027       -0.0002083209       -0.0013000458
O         0.0000487453        0.0006502209       -0.0011759630
O         0.0001410908        0.0004773990       -0.0017385372
O         0.0008173618       -0.0000165369        0.0008490524
O         0.0000256935        0.0018284099        0.0001171296
O         0.0004335080        0.0020664374       -0.0000570642
O        -0.0021265981       -0.0002040416       -0.0015624421
O         0.0004231996        0.0003748913       -0.0000270822
O         0.0000839673       -0.0008222355        0.0002307625
O        -0.0000656818       -0.0004162235       -0.0005051178
O         0.0000196980       -0.0005527944        0.0006663510
O         0.0007230520        0.0001667428       -0.0009364944
O        -0.0001727098        0.0001871579       -0.0003879423
O        -0.0001962176        0.0001401738       -0.0001058728
O        -0.0004738295        0.0004210531        0.0021756745
O        -0.0003546666        0.0004568409        0.0008109883
O        -0.0002169118       -0.0006917870        0.0006456324
O         0.0000362506        0.0007777284        0.0000702865
O         0.0002146665       -0.0016397508        0.0001302553
O         0.0000571321       -0.0000432463        0.0012121319
O         0.0000751986       -0.0002543081        0.0008794852
O        -0.0001624196        0.0000476859       -0.0002672861
O        -0.0020804889        0.0001901199       -0.0007532176
O         0.0009877132       -0.0001282869        0.0004589257
O         0.0000897747        0.0011039959        0.0007609735
O        -0.0002748001       -0.0003768272        0.0000454229
O        -0.0003838690        0.0000743247       -0.0055211193
O         0.0000173785        0.0003445860        0.0000547693
O         0.0002792057        0.0003722951       -0.0009884609
O         0.0000092286       -0.0000375363        0.0002049228
O         0.0009973694       -0.0000657986        0.0012761391
O        -0.0016198343       -0.0002342075        0.0012360232
O        -0.0000147682        0.0002302249        0.0009140736
O        -0.0000431719       -0.0011459451       -0.0000838951
O        -0.0008036099       -0.0005252735       -0.0002318760
O         0.0007726519       -0.0005158021       -0.0004654366
O         0.0001437421       -0.0010052391        0.0014820359
O         0.0002111634        0.0010924171       -0.0001339866
O        -0.0003589676        0.0003050282        0.0008170337
O        -0.0000965851        0.0001896596       -0.0002985968
O        -0.0001630796       -0.0001711571       -0.0011040974
O        -0.0003646566       -0.0007514678       -0.0016291965
O         0.0014356233       -0.0004741670       -0.0014566500
O         0.0006695465       -0.0001310101        0.0014194813
O        -0.0000214338       -0.0029024900       -0.0046168448
O        -0.0001251687        0.0011995339       -0.0002840672
O         0.0005726189       -0.0003053425       -0.0014725876
O         0.0001385716        0.0001351699       -0.0005592361
O         0.0005529173        0.0012985801        0.0006540261
O         0.0001089075       -0.0013405620        0.0012975314
O        -0.0004515377        0.0003335194        0.0011858281
O        -0.0005388870        0.0004557198        0.0010840763
O         0.0000966308       -0.0003710513       -0.0007176134
O         0.0005298699       -0.0001811328       -0.0013641669
O        -0.0003626845       -0.0001529020       -0.0012884736
O         0.0018515383        0.0001698104        0.0011685281
O         0.0001740937       -0.0007721137       -0.0006902137
O        -0.0003144563        0.0008421083        0.0000940575
O         0.0012459948        0.0004098914       -0.0017280101
O         0.0002788351       -0.0002319600        0.0000070000
O        -0.0002267693        0.0002812940        0.0012618110
O         0.0002909569       -0.0001734958        0.0004969668
O        -0.0006798401       -0.0001503563        0.0000740356
O         0.0005765986        0.0004066027        0.0007208739
O        -0.0001212286       -0.0018681868       -0.0009157524
O         0.0003123656       -0.0017171022        0.0000124951
O         0.0008420656        0.0004745541       -0.0001527563
O         0.0000793549       -0.0017609399       -0.0003624274
O         0.0025917794        0.0000557112        0.0077119908
O         0.0013316277       -0.0000400624       -0.0008190122
O         0.0014689238       -0.0007029062        0.0004665358
O        -0.0009079416        0.0000501244       -0.0024501159
O        -0.0001025034       -0.0006595034        0.0003966655
O         0.0000123612       -0.0014201313       -0.0012890977
O        -0.0007811436       -0.0000306583       -0.0013887374
O         0.0005066456        0.0000615382        0.0013249296
O        -0.0000939191        0.0005711169        0.0006242459
O        -0.0010574968       -0.0002604717       -0.0002566409
O         0.0003857397       -0.0002466188        0.0002540854
O        -0.0003492562       -0.0001838144        0.0003508471
O        -0.0003949405        0.0009496558        0.0000316249
O        -0.0001789246       -0.0007939424       -0.0018573805
O        -0.0002953367       -0.0000529726       -0.0011856605
O        -0.0001503991       -0.0002350469       -0.0004994023
O         0.0000219134       -0.0008703397        0.0026634463
O        -0.0003552727       -0.0000045609       -0.0006848972
O         0.0000755797        0.0001427421        0.0007224850
O        -0.0009312811        0.0015988948        0.0002745069
O        -0.0002353827        0.0001452111       -0.0021675176
O        -0.0000004110        0.0000450130        0.0016230744
O        -0.0023573168        0.0000020593        0.0004750453
O         0.0004936736       -0.0001732407        0.0004447793
O         0.0001427956       -0.0015422739       -0.0015604937
O         0.0003792737        0.0004606484       -0.0008827146
O        -0.0009997854       -0.0004607230        0.0006355338
O        -0.0000324130       -0.0004842109        0.0007112692
O        -0.0004436400       -0.0004355090       -0.0002213826
O        -0.0000446183       -0.0007193331        0.0003541331
O         0.0022997226        0.0002814495       -0.0005029664
O         0.0000694019       -0.0004875613        0.0026716205
O        -0.0002152688       -0.0009166639        0.0002496582
O         0.0005266892       -0.0003213931        0.0003933287
O        -0.0001708180       -0.0002645564       -0.0016903379
O         0.0011957883        0.0002740989        0.0004279142
     192
 i =       17, E =     -5769.5609232829
Ti        -0.0009167797       -0.0005024828       -0.0005445992
Ti        -0.0003026265        0.0001795985        0.0004746862
Ti        -0.0009720387       -0.0017643485        0.0002827763
Ti        -0.0003940483        0.0004637908       -0.0006754988
Ti        -0.0010375177       -0.0001442873        0.0007270054
Ti        -0.0005664881       -0.0013667434        0.0013306153
Ti         0.0003831703        0.0021161006        0.0000479949
Ti         0.0001803555        0.0012379175       -0.0006392167
Ti         0.0006829205        0.0005912948        0.0001163729
Ti        -0.0012694011       -0.0015958986        0.0002550799
Ti         0.0002278274        0.0006207255       -0.0006622539
Ti        -0.0010308966        0.0013587633       -0.0000478470
Ti        -0.0002857423        0.0000071506        0.0000856478
Ti        -0.0007258659       -0.0002267204        0.0001134333
Ti        -0.0005708572        0.0004860234        0.0003252930
Ti         0.0007216869       -0.0001686086        0.0004368958
Ti        -0.0001834179       -0.0002812000       -0.0001394393
Ti        -0.0000465659       -0.0015749561       -0.0001979761
Ti        -0.0018257203        0.0002886764       -0.0010058128
Ti         0.0003842781       -0.0006078304       -0.0011565873
Ti        -0.0002803684       -0.0002360252       -0.0009609480
Ti         0.0000690677        0.0001517575        0.0008459906
Ti         0.0022640025        0.0002985752        0.0000513032
Ti        -0.0010858196        0.0014646382       -0.0010240009
Ti        -0.0005442934       -0.0012924510        0.0015251126
Ti         0.0004364810       -0.0015510974       -0.0004714368
Ti         0.0009404226       -0.0000729375       -0.0000055251
Ti         0.0005202095        0.0010196320       -0.0002852126
Ti        -0.0004970561        0.0007357483       -0.0003158665
Ti         0.0007319526       -0.0006041895       -0.0000050092
Ti         0.0009288929       -0.0014852084        0.0041805135
Ti         0.0002892755        0.0000786742        0.0000957579
Ti        -0.0000005425        0.0008324408        0.0013396212
Ti        -0.0003368933        0.0002839518       -0.0002414156
Ti        -0.0006600953        0.0011087268        0.0017618200
Ti         0.0002801797        0.0005991407        0.0007242491
Ti         0.0007416172       -0.0001678180        0.0001146701
Ti         0.0006407755        0.0027496658       -0.0003975324
Ti        -0.0001116898       -0.0002366058        0.0002366986
Ti         0.0008922791       -0.0003774431        0.0009526829
Ti        -0.0003462799       -0.0003687648       -0.0008893013
Ti        -0.0053441498        0.0042253454        0.0008719966
Ti         0.0009790348       -0.0014621033       -0.0000266363
Ti         0.0001334875        0.0009764753       -0.0005315102
Ti        -0.0015943591        0.0005134620       -0.0006495365
Ti         0.0000961481       -0.0008131076        0.0001751043
Ti         0.0000465125       -0.0004107642        0.0008631630
Ti         0.0002111103        0.0009756890       -0.0010722351
Ti         0.0019116049        0.0002118053        0.0013896005
Ti        -0.0000462200       -0.0003252583       -0.0009245266
Ti        -0.0006447273        0.0009047852        0.0009469549
Ti        -0.0006650893        0.0001157163       -0.0000718557
Ti         0.0004633724        0.0009694969        0.0008940217
Ti        -0.0014941055       -0.0017733022       -0.0007367650
Ti        -0.0004658493       -0.0009598960        0.0007003357
Ti         0.0033249911       -0.0025165673       -0.0002187412
Ti        -0.0022808215        0.0014475741       -0.0035386888
Ti         0.0010940149       -0.0002789479        0.0001131360
Ti         0.0016220910        0.0003657626       -0.0019248486
Ti         0.0000149766        0.0001642569        0.0011684798
Ti         0.0004685135       -0.0011276922        0.0004091544
Ti        -0.0006157683        0.0004622164       -0.0000042492
Ti        -0.0001530827       -0.0002039599       -0.0002423122
Ti         0.0004411328        0.0004933840       -0.0015194501
O         0.0001907150        0.0015351944        0.0000307247
O        -0.0001726123       -0.0006522903       -0.0015187880
O         0.0008530939       -0.0001657019        0.0002910324
O         0.0007586108        0.0001048363       -0.0001647702
O        -0.0001992678        0.0004651388        0.0000878541
O         0.0000875510        0.0002259339        0.0004298306
O        -0.0004096580       -0.0001238707        0.0011846171
O         0.0003784305        0.0001865391        0.0004681303
O         0.0002483407        0.0005500160        0.0003883023
O         0.0000280681        0.0001433985       -0.0003961203
O        -0.0005151409       -0.0001378237       -0.0007805685
O        -0.0007046651       -0.0001144617       -0.0001322841
O        -0.0001226994       -0.0001363292       -0.0008709102
O        -0.0000790939        0.0004792764        0.0009627365
O        -0.0013720467       -0.0001227150        0.0012390235
O         0.0007626159        0.0002939468        0.0004953533
O        -0.0000476623        0.0001258853       -0.0005250893
O         0.0008253527       -0.0001218273       -0.0000221993
O         0.0007589296        0.0001156418       -0.0012373086
O        -0.0001733455       -0.0001436770        0.0000274510
O        -0.0001138456       -0.0006156080       -0.0006234814
O         0.0000280961        0.0013360344       -0.0002137076