 DBCSR| CPU Multiplication driver                                           XSMM (U)
 DBCSR| Multrec recursion limit                                              512 (U)
 DBCSR| Multiplication stack size                                           1000 (D)
 DBCSR| Maximum elements for images                                    UNLIMITED (U)
 DBCSR| Multiplicative factor virtual images                                   1 (U)
 DBCSR| Use multiplication densification                                       T (D)
 DBCSR| Multiplication size stacks                                             3 (U)
 DBCSR| Use memory pool for CPU allocation                                     F (U)
 DBCSR| Number of 3D layers                                               SINGLE (U)
 DBCSR| Use MPI memory allocation                                              F (U)
 DBCSR| Use RMA algorithm                                                      F (U)
 DBCSR| Use Communication thread                                               T (U)
 DBCSR| Communication thread load                                             87 (D)
 DBCSR| MPI: My process id                                                     0
 DBCSR| MPI: Number of processes                                             128
 DBCSR| OMP: Current number of threads                                         1
 DBCSR| OMP: Max number of threads                                             1
 DBCSR| Split modifier for TAS multiplication algorithm                  1.0E+00 (U)


  **** **** ******  **  PROGRAM STARTED AT               2025-06-19 09:29:12.831
 ***** ** ***  *** **   PROGRAM STARTED ON                             nid004786
 **    ****   ******    PROGRAM STARTED BY                                cahart
 ***** **    ** ** **   PROGRAM PROCESS ID                                 50180
  **** **  *******  **  PROGRAM STARTED IN /mnt/lustre/a2fs-work2/work/e05/e05/c
                                           ahart/postdoc2/work/group/tio2/anatas
                                           e/cell-441/geo-opt/mp-390/hole/from-n
                                           eutral/pbe-u-o/u-2.3

 CP2K| version string:                                       CP2K version 2024.3
 CP2K| source code revision number:                                  git:6712648
 CP2K| cp2kflags: omp libint fftw3 libxc libgrpp elpa parallel scalapack cosma x
 CP2K|            smm plumed2 spglib mkl sirius libvori libbqb libvdwxc hdf5
 CP2K| is freely available from                            https://www.cp2k.org/
 CP2K| Program compiled at                       Thu 12 Sep 2024 10:20:47 AM BST
 CP2K| Program compiled on                                                  ln04
 CP2K| Program compiled for                                                local
 CP2K| Data directory path    /mnt/lustre/a2fs-work1/work/y07/shared/apps/core/c
 CP2K| Input file name                                                 input.inp

 GLOBAL| Force Environment number                                              1
 GLOBAL| Basis set file name                                        BASIS_MOLOPT
 GLOBAL| Potential file name                                      GTH_POTENTIALS
 GLOBAL| MM Potential file name                                     MM_POTENTIAL
 GLOBAL| Coordinate file name                                         system.xyz
 GLOBAL| Method name                                                        CP2K
 GLOBAL| Project name                                                       tio2
 GLOBAL| Run type                                                        GEO_OPT
 GLOBAL| FFT library                                                       FFTW3
 GLOBAL| Diagonalization library                                            ELPA
 GLOBAL| DGEMM library                                                      BLAS
 GLOBAL| Minimum number of eigenvectors for ELPA usage                        16
 GLOBAL| Orthonormality check for eigenvectors                          DISABLED
 GLOBAL| Matrix multiplication library                                     COSMA
 GLOBAL| All-to-all communication in single precision                          F
 GLOBAL| FFTs using library dependent lengths                                  F
 GLOBAL| Grid backend                                                       AUTO
 GLOBAL| Global print level                                               MEDIUM
 GLOBAL| MPI I/O enabled                                                       T
 GLOBAL| Total number of message passing processes                           128
 GLOBAL| Number of threads for this process                                    1
 GLOBAL| This output is from process                                           0
 GLOBAL| Stack size for threads created by OpenMP (OMP_STACKSIZE)        default
 GLOBAL| CPU model name                          AMD EPYC 7742 64-Core Processor
 GLOBAL| CPUID                                                              1002

 MEMORY| system memory details [Kb]
 MEMORY|                        rank 0           min           max       average
 MEMORY| MemTotal            263341976     263341976     263341976     263341976
 MEMORY| MemFree             235589680     235588420     235590688     235589113
 MEMORY| Buffers                     0             0             0             0
 MEMORY| Cached                1570024       1568864       1570660       1570161
 MEMORY| Slab                  5175500       5175384       5175596       5175532
 MEMORY| SReclaimable           130484        130464        130488        130482
 MEMORY| MemLikelyFree       237290188     237288860     237290728     237289758


 *** Fundamental physical constants (SI units) ***

 *** Literature: B. J. Mohr and B. N. Taylor,
 ***             CODATA recommended values of the fundamental physical
 ***             constants: 2006, Web Version 5.1
 ***             http://physics.nist.gov/constants

 Speed of light in vacuum [m/s]                             2.99792458000000E+08
 Magnetic constant or permeability of vacuum [N/A**2]       1.25663706143592E-06
 Electric constant or permittivity of vacuum [F/m]          8.85418781762039E-12
 Planck constant (h) [J*s]                                  6.62606896000000E-34
 Planck constant (h-bar) [J*s]                              1.05457162825177E-34
 Elementary charge [C]                                      1.60217648700000E-19
 Electron mass [kg]                                         9.10938215000000E-31
 Electron g factor [ ]                                     -2.00231930436220E+00
 Proton mass [kg]                                           1.67262163700000E-27
 Fine-structure constant                                    7.29735253760000E-03
 Rydberg constant [1/m]                                     1.09737315685270E+07
 Avogadro constant [1/mol]                                  6.02214179000000E+23
 Boltzmann constant [J/K]                                   1.38065040000000E-23
 Atomic mass unit [kg]                                      1.66053878200000E-27
 Bohr radius [m]                                            5.29177208590000E-11

 *** Conversion factors ***

 [u] -> [a.u.]                                              1.82288848426455E+03
 [Angstrom] -> [Bohr] = [a.u.]                              1.88972613288564E+00
 [a.u.] = [Bohr] -> [Angstrom]                              5.29177208590000E-01
 [a.u.] -> [s]                                              2.41888432650478E-17
 [a.u.] -> [fs]                                             2.41888432650478E-02
 [a.u.] -> [J]                                              4.35974393937059E-18
 [a.u.] -> [N]                                              8.23872205491840E-08
 [a.u.] -> [K]                                              3.15774647902944E+05
 [a.u.] -> [kJ/mol]                                         2.62549961709828E+03
 [a.u.] -> [kcal/mol]                                       6.27509468713739E+02
 [a.u.] -> [Pa]                                             2.94210107994716E+13
 [a.u.] -> [bar]                                            2.94210107994716E+08
 [a.u.] -> [atm]                                            2.90362800883016E+08
 [a.u.] -> [eV]                                             2.72113838565563E+01
 [a.u.] -> [Hz]                                             6.57968392072181E+15
 [a.u.] -> [1/cm] (wave numbers)                            2.19474631370540E+05
 [a.u./Bohr**2] -> [1/cm]                                   5.14048714338585E+03
 

 CELL_TOP| Volume [angstrom^3]:                                      2198.132028
 CELL_TOP| Vector a [angstrom    15.120     0.000     0.000   |a| =    15.120000
 CELL_TOP| Vector b [angstrom     0.000    15.120     0.000   |b| =    15.120000
 CELL_TOP| Vector c [angstrom     0.000     0.000     9.615   |c| =     9.615020
 CELL_TOP| Angle (b,c), alpha [degree]:                                90.000000
 CELL_TOP| Angle (a,c), beta  [degree]:                                90.000000
 CELL_TOP| Angle (a,b), gamma [degree]:                                90.000000
 CELL_TOP| Requested initial symmetry:                       MONOCLINIC_GAMMA_AB
 CELL_TOP| Numerically orthorhombic:                                         YES
 CELL_TOP| Periodicity                                                       XYZ

 *** WARNING in atoms_input.F:123 :: Overwriting coordinates. Active    ***
 *** coordinates read from &COORD section. Active coordinates READ from ***
 *** &COORD section                                                     ***


 GENERATE|  Preliminary Number of Bonds generated:                             0
 GENERATE|  Achieved consistency in connectivity generation.

 CELL| Volume [angstrom^3]:                                          2198.132028
 CELL| Vector a [angstrom]:      15.120     0.000     0.000   |a| =    15.120000
 CELL| Vector b [angstrom]:       0.000    15.120     0.000   |b| =    15.120000
 CELL| Vector c [angstrom]:       0.000     0.000     9.615   |c| =     9.615020
 CELL| Angle (b,c), alpha [degree]:                                    90.000000
 CELL| Angle (a,c), beta  [degree]:                                    90.000000
 CELL| Angle (a,b), gamma [degree]:                                    90.000000
 CELL| Requested initial symmetry:                           MONOCLINIC_GAMMA_AB
 CELL| Numerically orthorhombic:                                             YES
 CELL| Periodicity                                                           XYZ

 CELL_REF| Volume [angstrom^3]:                                      2198.132028
 CELL_REF| Vector a [angstrom    15.120     0.000     0.000   |a| =    15.120000
 CELL_REF| Vector b [angstrom     0.000    15.120     0.000   |b| =    15.120000
 CELL_REF| Vector c [angstrom     0.000     0.000     9.615   |c| =     9.615020
 CELL_REF| Angle (b,c), alpha [degree]:                                90.000000
 CELL_REF| Angle (a,c), beta  [degree]:                                90.000000
 CELL_REF| Angle (a,b), gamma [degree]:                                90.000000
 CELL_REF| Requested initial symmetry:                       MONOCLINIC_GAMMA_AB
 CELL_REF| Numerically orthorhombic:                                         YES
 CELL_REF| Periodicity                                                       XYZ

 *******************************************************************************
 *******************************************************************************
 **                                                                           **
 **     #####                         ##              ##                      **
 **    ##   ##            ##          ##              ##                      **
 **   ##     ##                       ##            ######                    **
 **   ##     ##  ##   ##  ##   #####  ##  ##   ####   ##    #####    #####    **
 **   ##     ##  ##   ##  ##  ##      ## ##   ##      ##   ##   ##  ##   ##   **
 **   ##  ## ##  ##   ##  ##  ##      ####     ###    ##   ######   ######    **
 **    ##  ###   ##   ##  ##  ##      ## ##      ##   ##   ##       ##        **
 **     #######   #####   ##   #####  ##  ##  ####    ##    #####   ##        **
 **           ##                                                    ##        **
 **                                                                           **
 **                                                ... make the atoms dance   **
 **                                                                           **
 **            Copyright (C) by CP2K developers group (2000-2024)             **
 **                      J. Chem. Phys. 152, 194103 (2020)                    **
 **                                                                           **
 *******************************************************************************

 DFT| Spin unrestricted (spin-polarized) Kohn-Sham calculation               UKS
 DFT| Multiplicity                                                             2
 DFT| Number of spin states                                                    2
 DFT| Charge                                                                   1
 DFT| Self-interaction correction (SIC)                                       NO
 DFT| Cutoffs: density                                              1.000000E-10
 DFT|          gradient                                             1.000000E-10
 DFT|          tau                                                  1.000000E-10
 DFT|          cutoff_smoothing_range                               0.000000E+00
 DFT| XC density smoothing                                                  NONE
 DFT| XC derivatives                                                          PW

 DFT+U| Method                                                          MULLIKEN
 DFT+U| Check atomic kind information for details

 FUNCTIONAL| PBE:
 FUNCTIONAL| J.P.Perdew, K.Burke, M.Ernzerhof, Phys. Rev. Letter, vol. 77, n 18,
 FUNCTIONAL|  pp. 3865-3868, (1996) {spin polarized}                            


 QS| Method:                                                                 GPW
 QS| Density plane wave grid type                        NON-SPHERICAL FULLSPACE
 QS| Number of grid levels:                                                    4
 QS| Density cutoff [a.u.]:                                                300.0
 QS| Multi grid cutoff [a.u.]: 1) grid level                               300.0
 QS|                           2) grid level                               100.0
 QS|                           3) grid level                                33.3
 QS|                           4) grid level                                11.1
 QS| Grid level progression factor:                                          3.0
 QS| Relative density cutoff [a.u.]:                                        20.0
 QS| Interaction thresholds: eps_pgf_orb:                                1.0E-06
 QS|                         eps_filter_matrix:                          0.0E+00
 QS|                         eps_core_charge:                            1.0E-14
 QS|                         eps_rho_gspace:                             1.0E-12
 QS|                         eps_rho_rspace:                             1.0E-12
 QS|                         eps_gvg_rspace:                             1.0E-06
 QS|                         eps_ppl:                                    1.0E-02
 QS|                         eps_ppnl:                                   1.0E-08


 ATOMIC KIND INFORMATION

  1. Atomic kind: Ti                                    Number of atoms:      64

     Orbital Basis Set                                    DZVP-MOLOPT-SR-GTH-q12

       Number of orbital shell sets:                                           1
       Number of orbital shells:                                               8
       Number of primitive Cartesian functions:                                6
       Number of Cartesian basis functions:                                   31
       Number of spherical basis functions:                                   26
       Norm type:                                                              2

       Normalised Cartesian orbitals:

                        Set   Shell   Orbital            Exponent    Coefficient

                          1       1    2s                7.884570       0.015554
                                                         3.894698       0.963603
                                                         1.513589      -0.631435
                                                         0.596768      -0.343022
                                                         0.222222      -0.006534
                                                         0.077078       0.007652

                          1       2    3s                7.884570      -0.009340
                                                         3.894698       0.212624
                                                         1.513589      -0.258368
                                                         0.596768      -0.226206
                                                         0.222222       0.039438
                                                         0.077078       0.107179

                          1       3    4s                7.884570       0.276563
                                                         3.894698       0.105452
                                                         1.513589       0.085149
                                                         0.596768       0.882541
                                                         0.222222      -0.696223
                                                         0.077078       0.156638

                          1       4    3px               7.884570      -2.034794
                                                         3.894698       0.782008
                                                         1.513589       1.253903
                                                         0.596768       0.347823
                                                         0.222222       0.016778
                                                         0.077078      -0.000433
                          1       4    3py               7.884570      -2.034794
                                                         3.894698       0.782008
                                                         1.513589       1.253903
                                                         0.596768       0.347823
                                                         0.222222       0.016778
                                                         0.077078      -0.000433
                          1       4    3pz               7.884570      -2.034794
                                                         3.894698       0.782008
                                                         1.513589       1.253903
                                                         0.596768       0.347823
                                                         0.222222       0.016778
                                                         0.077078      -0.000433

                          1       5    4px               7.884570       0.376572
                                                         3.894698      -0.182875
                                                         1.513589      -0.474776
                                                         0.596768      -0.081757
                                                         0.222222       0.064432
                                                         0.077078       0.047279
                          1       5    4py               7.884570       0.376572
                                                         3.894698      -0.182875
                                                         1.513589      -0.474776
                                                         0.596768      -0.081757
                                                         0.222222       0.064432
                                                         0.077078       0.047279
                          1       5    4pz               7.884570       0.376572
                                                         3.894698      -0.182875
                                                         1.513589      -0.474776
                                                         0.596768      -0.081757
                                                         0.222222       0.064432
                                                         0.077078       0.047279

                          1       6    4dx2              7.884570       3.047350
                                                         3.894698       3.289529
                                                         1.513589       1.060616
                                                         0.596768       0.249930
                                                         0.222222       0.038806
                                                         0.077078       0.002319
                          1       6    4dxy              7.884570       5.278165
                                                         3.894698       5.697631
                                                         1.513589       1.837041
                                                         0.596768       0.432892
                                                         0.222222       0.067214
                                                         0.077078       0.004017
                          1       6    4dxz              7.884570       5.278165
                                                         3.894698       5.697631
                                                         1.513589       1.837041
                                                         0.596768       0.432892
                                                         0.222222       0.067214
                                                         0.077078       0.004017
                          1       6    4dy2              7.884570       3.047350
                                                         3.894698       3.289529
                                                         1.513589       1.060616
                                                         0.596768       0.249930
                                                         0.222222       0.038806
                                                         0.077078       0.002319
                          1       6    4dyz              7.884570       5.278165
                                                         3.894698       5.697631
                                                         1.513589       1.837041
                                                         0.596768       0.432892
                                                         0.222222       0.067214
                                                         0.077078       0.004017
                          1       6    4dz2              7.884570       3.047350
                                                         3.894698       3.289529
                                                         1.513589       1.060616
                                                         0.596768       0.249930
                                                         0.222222       0.038806
                                                         0.077078       0.002319

                          1       7    5dx2              7.884570      -2.119015
                                                         3.894698      -1.237751
                                                         1.513589      -0.746777
                                                         0.596768      -0.071514
                                                         0.222222       0.004086
                                                         0.077078       0.017595
                          1       7    5dxy              7.884570      -3.670241
                                                         3.894698      -2.143848
                                                         1.513589      -1.293455
                                                         0.596768      -0.123865
                                                         0.222222       0.007077
                                                         0.077078       0.030475
                          1       7    5dxz              7.884570      -3.670241
                                                         3.894698      -2.143848
                                                         1.513589      -1.293455
                                                         0.596768      -0.123865
                                                         0.222222       0.007077
                                                         0.077078       0.030475
                          1       7    5dy2              7.884570      -2.119015
                                                         3.894698      -1.237751
                                                         1.513589      -0.746777
                                                         0.596768      -0.071514
                                                         0.222222       0.004086
                                                         0.077078       0.017595
                          1       7    5dyz              7.884570      -3.670241
                                                         3.894698      -2.143848
                                                         1.513589      -1.293455
                                                         0.596768      -0.123865
                                                         0.222222       0.007077
                                                         0.077078       0.030475
                          1       7    5dz2              7.884570      -2.119015
                                                         3.894698      -1.237751
                                                         1.513589      -0.746777
                                                         0.596768      -0.071514
                                                         0.222222       0.004086
                                                         0.077078       0.017595

                          1       8    5fx3              7.884570      -0.342058
                                                         3.894698       0.375798
                                                         1.513589      -0.706469
                                                         0.596768      -0.229994
                                                         0.222222      -0.012723
                                                         0.077078       0.003932
                          1       8    5fx2y             7.884570      -0.764866
                                                         3.894698       0.840310
                                                         1.513589      -1.579712
                                                         0.596768      -0.514282
                                                         0.222222      -0.028450
                                                         0.077078       0.008792
                          1       8    5fx2z             7.884570      -0.764866
                                                         3.894698       0.840310
                                                         1.513589      -1.579712
                                                         0.596768      -0.514282
                                                         0.222222      -0.028450
                                                         0.077078       0.008792
                          1       8    5fxy2             7.884570      -0.764866
                                                         3.894698       0.840310
                                                         1.513589      -1.579712
                                                         0.596768      -0.514282
                                                         0.222222      -0.028450
                                                         0.077078       0.008792
                          1       8    5fxyz             7.884570      -1.324787
                                                         3.894698       1.455460
                                                         1.513589      -2.736142
                                                         0.596768      -0.890763
                                                         0.222222      -0.049276
                                                         0.077078       0.015229
                          1       8    5fxz2             7.884570      -0.764866
                                                         3.894698       0.840310
                                                         1.513589      -1.579712
                                                         0.596768      -0.514282
                                                         0.222222      -0.028450
                                                         0.077078       0.008792
                          1       8    5fy3              7.884570      -0.342058
                                                         3.894698       0.375798
                                                         1.513589      -0.706469
                                                         0.596768      -0.229994
                                                         0.222222      -0.012723
                                                         0.077078       0.003932
                          1       8    5fy2z             7.884570      -0.764866
                                                         3.894698       0.840310
                                                         1.513589      -1.579712
                                                         0.596768      -0.514282
                                                         0.222222      -0.028450
                                                         0.077078       0.008792
                          1       8    5fyz2             7.884570      -0.764866
                                                         3.894698       0.840310
                                                         1.513589      -1.579712
                                                         0.596768      -0.514282
                                                         0.222222      -0.028450
                                                         0.077078       0.008792
                          1       8    5fz3              7.884570      -0.342058
                                                         3.894698       0.375798
                                                         1.513589      -0.706469
                                                         0.596768      -0.229994
                                                         0.222222      -0.012723
                                                         0.077078       0.003932

       Atomic covalent radius [Angstrom]:                                  1.320

       Atomic van der Waals radius [Angstrom]:                             1.760

     GTH Potential information for                                   GTH-PBE-q12

       Description:                       Goedecker-Teter-Hutter pseudopotential
                                           Goedecker et al., PRB 54, 1703 (1996)
                                          Hartwigsen et al., PRB 58, 3641 (1998)
                                                      Krack, TCA 114, 145 (2005)

       Gaussian exponent of the core charge distribution:               3.462604
       Electronic configuration (s p d ...):                           4   6   2

       Parameters of the local part of the GTH pseudopotential:

                          rloc        C1          C2          C3          C4
                        0.380000    8.711442   -0.700287

       Parameters of the non-local part of the GTH pseudopotential:

                   l      r(l)      h(i,j,l)

                   0    0.337771    2.575264    3.692971
                                    3.692971   -4.767605
                   1    0.242531   -4.630541    8.870875
                                    8.870875  -10.496161
                   2    0.243317   -9.406653

  2. Atomic kind: O                                     Number of atoms:     128

     Orbital Basis Set                                     DZVP-MOLOPT-SR-GTH-q6

       Number of orbital shell sets:                                           1
       Number of orbital shells:                                               5
       Number of primitive Cartesian functions:                                5
       Number of Cartesian basis functions:                                   14
       Number of spherical basis functions:                                   13
       Norm type:                                                              2

       Normalised Cartesian orbitals:

                        Set   Shell   Orbital            Exponent    Coefficient

                          1       1    2s               10.389228       0.396646
                                                         3.849621       0.208811
                                                         1.388401      -0.301641
                                                         0.496955      -0.274061
                                                         0.162492      -0.033677

                          1       2    3s               10.389228       0.303673
                                                         3.849621       0.240943
                                                         1.388401      -0.313066
                                                         0.496955      -0.043055
                                                         0.162492       0.213991

                          1       3    3px              10.389228      -1.530415
                                                         3.849621      -1.371928
                                                         1.388401      -0.761951
                                                         0.496955      -0.253695
                                                         0.162492      -0.035541
                          1       3    3py              10.389228      -1.530415
                                                         3.849621      -1.371928
                                                         1.388401      -0.761951
                                                         0.496955      -0.253695
                                                         0.162492      -0.035541
                          1       3    3pz              10.389228      -1.530415
                                                         3.849621      -1.371928
                                                         1.388401      -0.761951
                                                         0.496955      -0.253695
                                                         0.162492      -0.035541

                          1       4    4px              10.389228      -0.565392
                                                         3.849621      -0.038231
                                                         1.388401      -0.382373
                                                         0.496955       0.179070
                                                         0.162492       0.122714
                          1       4    4py              10.389228      -0.565392
                                                         3.849621      -0.038231
                                                         1.388401      -0.382373
                                                         0.496955       0.179070
                                                         0.162492       0.122714
                          1       4    4pz              10.389228      -0.565392
                                                         3.849621      -0.038231
                                                         1.388401      -0.382373
                                                         0.496955       0.179070
                                                         0.162492       0.122714

                          1       5    4dx2             10.389228       1.867377
                                                         3.849621       0.670994
                                                         1.388401       1.353441
                                                         0.496955       0.273538
                                                         0.162492       0.006620
                          1       5    4dxy             10.389228       3.234392
                                                         3.849621       1.162195
                                                         1.388401       2.344229
                                                         0.496955       0.473781
                                                         0.162492       0.011466
                          1       5    4dxz             10.389228       3.234392
                                                         3.849621       1.162195
                                                         1.388401       2.344229
                                                         0.496955       0.473781
                                                         0.162492       0.011466
                          1       5    4dy2             10.389228       1.867377
                                                         3.849621       0.670994
                                                         1.388401       1.353441
                                                         0.496955       0.273538
                                                         0.162492       0.006620
                          1       5    4dyz             10.389228       3.234392
                                                         3.849621       1.162195
                                                         1.388401       2.344229
                                                         0.496955       0.473781
                                                         0.162492       0.011466
                          1       5    4dz2             10.389228       1.867377
                                                         3.849621       0.670994
                                                         1.388401       1.353441
                                                         0.496955       0.273538
                                                         0.162492       0.006620

       Atomic covalent radius [Angstrom]:                                  0.730

       Atomic van der Waals radius [Angstrom]:                             1.520

     GTH Potential information for                                    GTH-PBE-q6

       Description:                       Goedecker-Teter-Hutter pseudopotential
                                           Goedecker et al., PRB 54, 1703 (1996)
                                          Hartwigsen et al., PRB 58, 3641 (1998)
                                                      Krack, TCA 114, 145 (2005)

       Gaussian exponent of the core charge distribution:               8.360253
       Electronic configuration (s p d ...):                               2   4

       Parameters of the local part of the GTH pseudopotential:

                          rloc        C1          C2          C3          C4
                        0.244554  -16.667215    2.487311

       Parameters of the non-local part of the GTH pseudopotential:

                   l      r(l)      h(i,j,l)

                   0    0.220956   18.337458
                   1    0.211332

     A DFT+U correction is applied to atoms of this atomic kind:
       Angular quantum momentum number L:                                      1
       U(eff) = (U - J) value in [eV]:                                     2.300


 MOLECULE KIND INFORMATION


 All atoms are their own molecule, skipping detailed information


 TOTAL NUMBERS AND MAXIMUM NUMBERS

  Total number of            - Atomic kinds:                                   2
                             - Atoms:                                        192
                             - Shell sets:                                   192
                             - Shells:                                      1152
                             - Primitive Cartesian functions:               1024
                             - Cartesian basis functions:                   3776
                             - Spherical basis functions:                   3328

  Maximum angular momentum of- Orbital basis functions:                        3
                             - Local part of the GTH pseudopotential:          2
                             - Non-local part of the GTH pseudopotential:      3


 MODULE QUICKSTEP: ATOMIC COORDINATES IN ANGSTROM

   Atom Kind Element         X             Y             Z       Z(eff)     Mass
      1    1 Ti   22      0.000805      0.000787     -0.000000  12.0000  47.8670
      2    1 Ti   22      1.888407      1.888418      4.807507  12.0000  47.8670
      3    1 Ti   22      0.000795      1.888382      2.402068  12.0000  47.8670
      4    1 Ti   22      1.888400      0.000795      7.212947  12.0000  47.8670
      5    1 Ti   22      0.000811      3.776037      0.003086  12.0000  47.8670
      6    1 Ti   22      1.888419     13.237832      4.805772  12.0000  47.8670
      7    1 Ti   22     11.350285      1.888397      2.403678  12.0000  47.8670
      8    1 Ti   22      5.669436      0.000847      7.216965  12.0000  47.8670
      9    1 Ti   22      1.888436      3.776065      7.209841  12.0000  47.8670
     10    1 Ti   22      0.000809     13.237794      2.403814  12.0000  47.8670
     11    1 Ti   22      5.669468      1.888528      4.803451  12.0000  47.8670
     12    1 Ti   22     11.350268      0.000777     -0.001622  12.0000  47.8670
     13    1 Ti   22      3.776047      0.000812     -0.003074  12.0000  47.8670
     14    1 Ti   22     13.237826      1.888415      4.809245  12.0000  47.8670
     15    1 Ti   22     13.237812      0.000813      7.211226  12.0000  47.8670
     16    1 Ti   22      3.776065      1.888445      2.405178  12.0000  47.8670
     17    1 Ti   22      1.888525      5.669474      4.811562  12.0000  47.8670
     18    1 Ti   22      0.000782     11.350276      0.001609  12.0000  47.8670
     19    1 Ti   22      0.000843      5.669436      2.398045  12.0000  47.8670
     20    1 Ti   22      1.888404     11.350280      7.211339  12.0000  47.8670
     21    1 Ti   22      0.000841      7.569620      0.005656  12.0000  47.8670
     22    1 Ti   22      1.888462      9.462828      4.808829  12.0000  47.8670
     23    1 Ti   22      7.569617      1.888510      2.407757  12.0000  47.8670
     24    1 Ti   22      9.462813      0.000814      7.214256  12.0000  47.8670
     25    1 Ti   22      1.888511      7.569610      7.207262  12.0000  47.8670
     26    1 Ti   22      0.000812      9.462815      2.400770  12.0000  47.8670
     27    1 Ti   22      9.462825      1.888471      4.806190  12.0000  47.8670
     28    1 Ti   22      7.569610      0.000840     -0.005652  12.0000  47.8670
     29    1 Ti   22      3.776095      3.776098     -0.000003  12.0000  47.8670
     30    1 Ti   22     13.237824     13.237834      4.807523  12.0000  47.8670
     31    1 Ti   22     11.350174      5.669459      2.399623  12.0000  47.8670
     32    1 Ti   22      5.669464     11.350163      7.215392  12.0000  47.8670
     33    1 Ti   22     13.237793      3.776061      7.208146  12.0000  47.8670
     34    1 Ti   22      3.776064     13.237788      2.406884  12.0000  47.8670
     35    1 Ti   22      5.669501      5.669508      4.807506  12.0000  47.8670
     36    1 Ti   22     11.350271     11.350276      0.000000  12.0000  47.8670
     37    1 Ti   22     11.350290     13.237818      2.405424  12.0000  47.8670
     38    1 Ti   22      5.669481      3.776187      7.213943  12.0000  47.8670
     39    1 Ti   22      3.776053     11.350238     -0.001492  12.0000  47.8670
     40    1 Ti   22     13.237777      5.669451      4.813261  12.0000  47.8670
     41    1 Ti   22      5.669460     13.237780      4.801762  12.0000  47.8670
     42    1 Ti   22     11.350228      3.776045      0.001488  12.0000  47.8670
     43    1 Ti   22     13.237819     11.350275      7.209602  12.0000  47.8670
     44    1 Ti   22      3.776184      5.669484      2.401073  12.0000  47.8670
     45    1 Ti   22      3.776174      7.569576      0.002628  12.0000  47.8670
     46    1 Ti   22     13.237817      9.462836      4.810540  12.0000  47.8670
     47    1 Ti   22      7.569574      5.669490      2.403693  12.0000  47.8670
     48    1 Ti   22      9.462814     11.350235      7.212653  12.0000  47.8670
     49    1 Ti   22     13.237776      7.569626      7.205571  12.0000  47.8670
     50    1 Ti   22      3.776102      9.462763      2.403850  12.0000  47.8670
     51    1 Ti   22      9.462691      5.669509      4.810289  12.0000  47.8670
     52    1 Ti   22      7.569605     11.350179     -0.004072  12.0000  47.8670
     53    1 Ti   22     11.350240      9.462809      2.402354  12.0000  47.8670
     54    1 Ti   22      5.669490      7.569566      7.211318  12.0000  47.8670
     55    1 Ti   22      5.669505      9.462698      4.804722  12.0000  47.8670
     56    1 Ti   22     11.350174      7.569601      0.004066  12.0000  47.8670
     57    1 Ti   22      9.462760      3.776104      7.211165  12.0000  47.8670
     58    1 Ti   22      7.569634     13.237773      2.409453  12.0000  47.8670
     59    1 Ti   22      7.569568      3.776172     -0.002630  12.0000  47.8670
     60    1 Ti   22      9.462835     13.237831      4.804483  12.0000  47.8670
     61    1 Ti   22      7.569568      7.569570      0.000001  12.0000  47.8670
     62    1 Ti   22      9.462794      9.462794      4.807506  12.0000  47.8670
     63    1 Ti   22      7.569581      9.462689      2.406473  12.0000  47.8670
     64    1 Ti   22      9.462687      7.569580      7.208544  12.0000  47.8670
     65    2 O     8      0.000891      0.001590      1.992696   6.0000  15.9994
     66    2 O     8      1.884824      1.887555      6.800566   6.0000  15.9994
     67    2 O     8      0.001582      1.884789      4.396875   6.0000  15.9994
     68    2 O     8      1.887574      0.000885      9.203897   6.0000  15.9994
     69    2 O     8      1.884790      0.001582      5.218147   6.0000  15.9994
     70    2 O     8      0.000885      1.887572      0.411125   6.0000  15.9994
     71    2 O     8      1.887555      1.884827      2.814452   6.0000  15.9994
     72    2 O     8      0.001594      0.000889      7.622322   6.0000  15.9994
     73    2 O     8      0.000923      3.775992      1.990774   6.0000  15.9994
     74    2 O     8      1.884790     13.236994      6.800626   6.0000  15.9994
     75    2 O     8     11.351131      1.884820      4.396870   6.0000  15.9994
     76    2 O     8      5.672142      0.000870      9.205196   6.0000  15.9994
     77    2 O     8      1.884950      3.775963      5.220039   6.0000  15.9994
     78    2 O     8      0.000889     13.236983      0.411061   6.0000  15.9994
     79    2 O     8      5.672124      1.884947      2.813213   6.0000  15.9994
     80    2 O     8     11.351112      0.000884      7.622330   6.0000  15.9994
     81    2 O     8      3.775995      0.000923      7.624241   6.0000  15.9994
     82    2 O     8     13.236995      1.884791      2.814392   6.0000  15.9994
     83    2 O     8     13.236986      0.000889      9.203956   6.0000  15.9994
     84    2 O     8      3.775968      1.884951      4.394975   6.0000  15.9994
     85    2 O     8      1.884944      5.672109      6.801807   6.0000  15.9994
     86    2 O     8      0.000882     11.351114      1.992690   6.0000  15.9994
     87    2 O     8      0.000868      5.672148      0.409827   6.0000  15.9994
     88    2 O     8      1.884821     11.351129      5.218151   6.0000  15.9994
     89    2 O     8      0.000868      7.566959      1.993934   6.0000  15.9994
     90    2 O     8      1.884946      9.462860      6.798795   6.0000  15.9994
     91    2 O     8      7.566990      1.884943      4.398058   6.0000  15.9994
     92    2 O     8      9.462836      0.000922      9.202099   6.0000  15.9994
     93    2 O     8      1.884942      7.566986      5.216965   6.0000  15.9994
     94    2 O     8      0.000923      9.462833      0.412923   6.0000  15.9994
     95    2 O     8      9.462860      1.884950      2.816227   6.0000  15.9994
     96    2 O     8      7.566960      0.000869      7.621090   6.0000  15.9994
     97    2 O     8      3.769749      0.001585      1.993098   6.0000  15.9994
     98    2 O     8     13.237596      1.887573      6.800134   6.0000  15.9994
     99    2 O     8      0.001613      5.656002      4.396406   6.0000  15.9994
    100    2 O     8      1.887554     11.353735      9.204324   6.0000  15.9994
    101    2 O     8     13.237593      0.001595      5.218571   6.0000  15.9994
    102    2 O     8      3.769853      1.887601      0.410747   6.0000  15.9994
    103    2 O     8      1.887747      5.656274      2.814934   6.0000  15.9994
    104    2 O     8      0.001581     11.353766      7.621899   6.0000  15.9994
    105    2 O     8     11.353734      1.887554      0.410694   6.0000  15.9994
    106    2 O     8      5.655995      0.001614      5.218611   6.0000  15.9994
    107    2 O     8      5.656282      1.887744      6.800082   6.0000  15.9994
    108    2 O     8     11.353765      0.001581      1.993120   6.0000  15.9994
    109    2 O     8      1.887600      3.769853      9.204273   6.0000  15.9994
    110    2 O     8      0.001594     13.237591      4.396447   6.0000  15.9994
    111    2 O     8      0.001586      3.769749      7.621919   6.0000  15.9994
    112    2 O     8      1.887573     13.237595      2.814884   6.0000  15.9994
    113    2 O     8      3.770048      3.776003      1.991246   6.0000  15.9994
    114    2 O     8     13.237591     13.236988      6.800197   6.0000  15.9994
    115    2 O     8     11.350941      5.656236      4.396385   6.0000  15.9994
    116    2 O     8      5.672113     11.353618      9.205563   6.0000  15.9994
    117    2 O     8     13.237560      3.775995      5.220496   6.0000  15.9994
    118    2 O     8      3.769750     13.236988      0.410656   6.0000  15.9994
    119    2 O     8      5.672166      5.656812      2.813387   6.0000  15.9994
    120    2 O     8     11.351130     11.353737      7.621902   6.0000  15.9994
    121    2 O     8     11.353769     13.236992      0.410635   6.0000  15.9994
    122    2 O     8      5.656529      3.776153      5.220312   6.0000  15.9994
    123    2 O     8      3.775968     11.353612      7.623789   6.0000  15.9994
    124    2 O     8     13.236966      5.656026      2.814859   6.0000  15.9994
    125    2 O     8      5.656034     13.236968      6.800154   6.0000  15.9994
    126    2 O     8     11.353613      3.775965      1.991229   6.0000  15.9994
    127    2 O     8     13.236993     11.353768      9.204385   6.0000  15.9994
    128    2 O     8      3.776146      5.656537      4.394706   6.0000  15.9994
    129    2 O     8      5.656814      5.672170      6.801638   6.0000  15.9994
    130    2 O     8     11.353737     11.351133      1.993118   6.0000  15.9994
    131    2 O     8     13.236990      3.769747      9.204363   6.0000  15.9994
    132    2 O     8      3.775992     13.237561      4.394521   6.0000  15.9994
    133    2 O     8     11.353618      5.672115      0.409457   6.0000  15.9994
    134    2 O     8      5.656226     11.350941      5.218632   6.0000  15.9994
    135    2 O     8      3.776012      3.770048      7.623780   6.0000  15.9994
    136    2 O     8     13.236985     13.237591      2.814822   6.0000  15.9994
    137    2 O     8     13.237597     11.351112      5.218582   6.0000  15.9994
    138    2 O     8      3.770094      5.672090      0.409452   6.0000  15.9994
    139    2 O     8      5.672154     13.237610      2.813582   6.0000  15.9994
    140    2 O     8     11.351084      3.769845      7.621957   6.0000  15.9994
    141    2 O     8      3.769844     11.351088      1.993065   6.0000  15.9994
    142    2 O     8     13.237613      5.672145      6.801439   6.0000  15.9994
    143    2 O     8     11.351116     13.237597      4.396445   6.0000  15.9994
    144    2 O     8      5.672103      3.770093      9.205568   6.0000  15.9994
    145    2 O     8      3.770090      7.567003      1.994303   6.0000  15.9994
    146    2 O     8     13.237558      9.462835      6.798339   6.0000  15.9994
    147    2 O     8      7.566934      5.656776      4.397885   6.0000  15.9994
    148    2 O     8      9.462858     11.353620      9.202552   6.0000  15.9994
    149    2 O     8     13.237614      7.566954      5.217335   6.0000  15.9994
    150    2 O     8      3.770038      9.462818      0.412459   6.0000  15.9994
    151    2 O     8      9.462670      5.656544      2.816511   6.0000  15.9994
    152    2 O     8      7.566985     11.353619      7.620718   6.0000  15.9994
    153    2 O     8     11.353618      9.462863      0.412469   6.0000  15.9994
    154    2 O     8      5.656775      7.566921      5.217134   6.0000  15.9994
    155    2 O     8      5.656547      9.462668      6.798505   6.0000  15.9994
    156    2 O     8     11.353620      7.566991      1.994301   6.0000  15.9994
    157    2 O     8      9.462815      3.770039      9.202560   6.0000  15.9994
    158    2 O     8      7.566953     13.237616      4.397691   6.0000  15.9994
    159    2 O     8      7.567002      3.770095      7.620713   6.0000  15.9994
    160    2 O     8      9.462836     13.237559      2.816688   6.0000  15.9994
    161    2 O     8      7.582793      0.001609      1.992689   6.0000  15.9994
    162    2 O     8      9.468716      1.887599      6.800499   6.0000  15.9994
    163    2 O     8      0.001585      9.468813      4.396835   6.0000  15.9994
    164    2 O     8      1.887732      7.582558      9.203877   6.0000  15.9994
    165    2 O     8      9.468815      0.001587      5.218185   6.0000  15.9994
    166    2 O     8      7.582560      1.887731      0.411141   6.0000  15.9994
    167    2 O     8      1.887595      9.468714      2.814522   6.0000  15.9994
    168    2 O     8      0.001610      7.582790      7.622328   6.0000  15.9994
    169    2 O     8      7.582277      3.776138      1.990976   6.0000  15.9994
    170    2 O     8      9.468814     13.236992      6.800587   6.0000  15.9994
    171    2 O     8     11.351083      9.468725      4.396801   6.0000  15.9994
    172    2 O     8      5.672153      7.582045      9.205389   6.0000  15.9994
    173    2 O     8      9.468530      3.776001      5.220048   6.0000  15.9994
    174    2 O     8      7.582790     13.236969      0.411066   6.0000  15.9994
    175    2 O     8      5.672087      9.468492      2.813224   6.0000  15.9994
    176    2 O     8     11.350956      7.582571      7.622354   6.0000  15.9994
    177    2 O     8      3.776135      7.582275      7.624041   6.0000  15.9994
    178    2 O     8     13.236989      9.468814      2.814432   6.0000  15.9994
    179    2 O     8     13.236969      7.582793      9.203954   6.0000  15.9994
    180    2 O     8      3.775999      9.468525      4.394971   6.0000  15.9994
    181    2 O     8      9.468493      5.672099      6.801788   6.0000  15.9994
    182    2 O     8      7.582575     11.350958      1.992668   6.0000  15.9994
    183    2 O     8      7.582043      5.672163      0.409630   6.0000  15.9994
    184    2 O     8      9.468724     11.351085      5.218220   6.0000  15.9994
    185    2 O     8      7.582049      7.566943      1.994129   6.0000  15.9994
    186    2 O     8      9.468538      9.462824      6.798784   6.0000  15.9994
    187    2 O     8      7.566986      9.468496      4.398037   6.0000  15.9994
    188    2 O     8      9.462689      7.582297      9.202287   6.0000  15.9994
    189    2 O     8      9.468494      7.567009      5.216980   6.0000  15.9994
    190    2 O     8      7.582290      9.462688      0.412737   6.0000  15.9994
    191    2 O     8      9.462817      9.468538      2.816240   6.0000  15.9994
    192    2 O     8      7.566945      7.582048      7.620894   6.0000  15.9994



 SCF PARAMETERS         Density guess:                                   RESTART
                        --------------------------------------------------------
                        max_scf:                                              40
                        max_scf_history:                                       0
                        max_diis:                                              4
                        --------------------------------------------------------
                        eps_scf:                                        1.00E-06
                        eps_scf_history:                                0.00E+00
                        eps_diis:                                       1.00E-01
                        eps_eigval:                                     1.00E-05
                        --------------------------------------------------------
                        level_shift [a.u.]:                             0.000000
                        --------------------------------------------------------
                        Outer loop SCF in use 
                        No variables optimised in outer loop
                        eps_scf                                         1.00E-06
                        max_scf                                               60
                        No outer loop optimization
                        step_size                                       5.00E-01

 PW_GRID| Information for grid number                                          1
 PW_GRID| Grid distributed over                                   128 processors
 PW_GRID| Real space group dimensions                                   128    1
 PW_GRID| the grid is blocked:                                                NO
 PW_GRID| Cutoff [a.u.]                                                    300.0
 PW_GRID| spherical cutoff:                                                   NO
 PW_GRID|   Bounds   1           -112     112                Points:         225
 PW_GRID|   Bounds   2           -112     112                Points:         225
 PW_GRID|   Bounds   3            -72      71                Points:         144
 PW_GRID| Volume element (a.u.^3)  0.2035E-02     Volume (a.u.^3)     14833.7304
 PW_GRID| Grid span                                                    FULLSPACE
 PW_GRID|   Distribution                         Average         Max         Min
 PW_GRID|   G-Vectors                            56953.1       57150       56925
 PW_GRID|   G-Rays                                 253.1         254         253
 PW_GRID|   Real Space Points                    56953.1       64800       32400

 PW_GRID| Information for grid number                                          2
 PW_GRID| Number of the reference grid                                         1
 PW_GRID| Grid distributed over                                   128 processors
 PW_GRID| Real space group dimensions                                   128    1
 PW_GRID| the grid is blocked:                                                NO
 PW_GRID| Cutoff [a.u.]                                                    100.0
 PW_GRID| spherical cutoff:                                                   NO
 PW_GRID|   Bounds   1            -67      67                Points:         135
 PW_GRID|   Bounds   2            -67      67                Points:         135
 PW_GRID|   Bounds   3            -40      40                Points:          81
 PW_GRID| Volume element (a.u.^3)  0.1005E-01     Volume (a.u.^3)     14833.7304
 PW_GRID| Grid span                                                    FULLSPACE
 PW_GRID|   Distribution                         Average         Max         Min
 PW_GRID|   G-Vectors                            11533.0       12150       10800
 PW_GRID|   G-Rays                                  85.4          90          80
 PW_GRID|   Real Space Points                    11533.0       21870       10935

 PW_GRID| Information for grid number                                          3
 PW_GRID| Number of the reference grid                                         1
 PW_GRID| Grid distributed over                                   128 processors
 PW_GRID| Real space group dimensions                                     8   16
 PW_GRID| the grid is blocked:                                                NO
 PW_GRID| Cutoff [a.u.]                                                     33.3
 PW_GRID| spherical cutoff:                                                   NO
 PW_GRID|   Bounds   1            -37      37                Points:          75
 PW_GRID|   Bounds   2            -37      37                Points:          75
 PW_GRID|   Bounds   3            -24      23                Points:          48
 PW_GRID| Volume element (a.u.^3)  0.5494E-01     Volume (a.u.^3)     14833.7304
 PW_GRID| Grid span                                                    FULLSPACE
 PW_GRID|   Distribution                         Average         Max         Min
 PW_GRID|   G-Vectors                             2109.4        2475        1725
 PW_GRID|   G-Rays                                  28.1          33          23
 PW_GRID|   Real Space Points                     2109.4        2400        1728

 PW_GRID| Information for grid number                                          4
 PW_GRID| Number of the reference grid                                         1
 PW_GRID| Grid distributed over                                   128 processors
 PW_GRID| Real space group dimensions                                     8   16
 PW_GRID| the grid is blocked:                                                NO
 PW_GRID| Cutoff [a.u.]                                                     11.1
 PW_GRID| spherical cutoff:                                                   NO
 PW_GRID|   Bounds   1            -22      22                Points:          45
 PW_GRID|   Bounds   2            -22      22                Points:          45
 PW_GRID|   Bounds   3            -13      13                Points:          27
 PW_GRID| Volume element (a.u.^3)  0.2713         Volume (a.u.^3)     14833.7304
 PW_GRID| Grid span                                                    FULLSPACE
 PW_GRID|   Distribution                         Average         Max         Min
 PW_GRID|   G-Vectors                              427.1         585         270
 PW_GRID|   G-Rays                                   9.5          13           6
 PW_GRID|   Real Space Points                      427.1         486         270

 POISSON| Solver                                                        PERIODIC
 POISSON| Periodicity                                                        XYZ

 RS_GRID| Information for grid number                                          1
 RS_GRID|   Bounds   1           -112     112                Points:         225
 RS_GRID|   Bounds   2           -112     112                Points:         225
 RS_GRID|   Bounds   3            -72      71                Points:         144
 RS_GRID| Real space distribution over                                  8 groups
 RS_GRID| Real space distribution along direction                              1
 RS_GRID| Border size                                                         26
 RS_GRID| Real space distribution over                                 16 groups
 RS_GRID| Real space distribution along direction                              2
 RS_GRID| Border size                                                         26
 RS_GRID|   Distribution                         Average         Max         Min
 RS_GRID|   Planes                                  80.1          81          80
 RS_GRID|   Distribution                         Average         Max         Min
 RS_GRID|   Planes                                  66.1          67          66

 RS_GRID| Information for grid number                                          2
 RS_GRID|   Bounds   1            -67      67                Points:         135
 RS_GRID|   Bounds   2            -67      67                Points:         135
 RS_GRID|   Bounds   3            -40      40                Points:          81
 RS_GRID| Real space distribution over                                  8 groups
 RS_GRID| Real space distribution along direction                              1
 RS_GRID| Border size                                                         24
 RS_GRID| Real space distribution over                                 16 groups
 RS_GRID| Real space distribution along direction                              2
 RS_GRID| Border size                                                         24
 RS_GRID|   Distribution                         Average         Max         Min
 RS_GRID|   Planes                                  64.9          65          64
 RS_GRID|   Distribution                         Average         Max         Min
 RS_GRID|   Planes                                  56.4          57          56

 RS_GRID| Information for grid number                                          3
 RS_GRID|   Bounds   1            -37      37                Points:          75
 RS_GRID|   Bounds   2            -37      37                Points:          75
 RS_GRID|   Bounds   3            -24      23                Points:          48
 RS_GRID| Real space fully replicated
 RS_GRID| Group size                                                           1

 RS_GRID| Information for grid number                                          4
 RS_GRID|   Bounds   1            -22      22                Points:          45
 RS_GRID|   Bounds   2            -22      22                Points:          45
 RS_GRID|   Bounds   3            -13      13                Points:          27
 RS_GRID| Real space fully replicated
 RS_GRID| Group size                                                           1

 BFGS| Use rational function optimization for step estimation:                NO
 BFGS| Use model Hessian for initial guess:                                  YES
 BFGS| Restart Hessian:                                                       NO
 BFGS| Trust radius:                                                       0.472

 *******************************************************************************
 ***                     STARTING GEOMETRY OPTIMIZATION                      ***
 ***                                   BFGS                                  ***
 *******************************************************************************

 Spin 1

 Number of electrons:                                                        768
 Number of occupied orbitals:                                                768
 Number of molecular orbitals:                                               768

 Spin 2

 Number of electrons:                                                        767
 Number of occupied orbitals:                                                767
 Number of molecular orbitals:                                               767

 Number of orbital functions:                                               3328
 Number of independent orbital functions:                                   3328

 Extrapolation method: initial_guess

 *** WARNING in qs_initial_guess.F:306 :: User requested to restart the    ***
 *** wavefunction from the file named: tio2-RESTART.wfn. This file does    ***
 *** not exist. Please check the existence of the file or change properly  ***
 *** the value of the keyword WFN_RESTART_FILE_NAME. Calculation continues ***
 *** using ATOMIC GUESS.                                                   ***


 Atomic guess: The first density matrix is obtained in terms of atomic orbitals
               and electronic configurations assigned to each atomic kind

 Guess for atomic kind: Ti

 Electronic structure
    Total number of core electrons                                         10.00
    Total number of valence electrons                                      12.00
    Total number of electrons                                              22.00
    Multiplicity                                                   not specified
    S   [  2.00  2.00] 2.00  2.00
    P   [  6.00] 6.00
    D      2.00


 *******************************************************************************
                  Iteration          Convergence                     Energy [au]
 *******************************************************************************
                          1         2.59099                     -56.573945749309
                          2        0.737518                     -57.461623245624
                          3        0.123244E-01                 -57.676656834797
                          4        0.338536E-02                 -57.676690535970
                          5        0.252157E-03                 -57.676697146183
                          6        0.162704E-05                 -57.676697160103
                          7        0.846593E-06                 -57.676697160104

 Energy components [Hartree]           Total Energy ::          -57.676697160104
                                        Band Energy ::          -13.440549799540
                                     Kinetic Energy ::           25.008468428381
                                   Potential Energy ::          -82.685165588485
                                      Virial (-V/T) ::            3.306286661467
                                        Core Energy ::          -97.155838374470
                                          XC Energy ::           -6.919409696495
                                     Coulomb Energy ::           46.398550910862
                       Total Pseudopotential Energy ::         -122.259340742080
                       Local Pseudopotential Energy ::         -118.928992669456
                    Nonlocal Pseudopotential Energy ::           -3.330348072625
                                        Confinement ::            0.950339392289

 Orbital energies  State     L     Occupation   Energy[a.u.]          Energy[eV]

                       1     0          2.000      -2.312566          -62.928123
                       2     0          2.000      -0.123060           -3.348633

                       1     1          6.000      -1.385567          -37.703193

                       1     2          2.000      -0.127948           -3.481643


 Total Electron Density at R=0:                                         0.004726

 Guess for atomic kind: O

 Electronic structure
    Total number of core electrons                                          2.00
    Total number of valence electrons                                       6.00
    Total number of electrons                                               8.00
    Multiplicity                                                   not specified
    S   [  2.00] 2.00
    P      4.00


 *******************************************************************************
                  Iteration          Convergence                     Energy [au]
 *******************************************************************************
                          1        0.702811                     -15.577904332270
                          2        0.612408                     -15.588447180504
                          3        0.955344E-02                 -15.655871208406
                          4        0.223754E-02                 -15.655885053552
                          5        0.157183E-02                 -15.655885461027
                          6        0.124953E-02                 -15.655885607150
                          7        0.312011E-06                 -15.655885858066

 Energy components [Hartree]           Total Energy ::          -15.655885858066
                                        Band Energy ::           -2.983128125584
                                     Kinetic Energy ::           11.754765134683
                                   Potential Energy ::          -27.410650992749
                                      Virial (-V/T) ::            2.331875684345
                                        Core Energy ::          -26.153522949072
                                          XC Energy ::           -3.157392363346
                                     Coulomb Energy ::           13.655029454351
                       Total Pseudopotential Energy ::          -37.943026860963
                       Local Pseudopotential Energy ::          -39.220419683052
                    Nonlocal Pseudopotential Energy ::            1.277392822089
                                        Confinement ::            0.347387772086

 Orbital energies  State     L     Occupation   Energy[a.u.]          Energy[eV]

                       1     0          2.000      -0.861522          -23.443215

                       1     1          4.000      -0.315021           -8.572154


 Total Electron Density at R=0:                                         0.000093

 Spin 1
 Re-scaling the density matrix to get the right number of electrons for spin 1
                  # Electrons              Trace(P)               Scaling factor
                          768               768.001                        1.000

 Spin 2
 Re-scaling the density matrix to get the right number of electrons for spin 2
                  # Electrons              Trace(P)               Scaling factor
                          767               768.001                        0.999


 SCF WAVEFUNCTION OPTIMIZATION

  ----------------------------------- OT ---------------------------------------
  Minimizer      : DIIS                : direct inversion
                                         in the iterative subspace
                                         using   7 DIIS vectors
                                         safer DIIS on
  Preconditioner : FULL_SINGLE_INVERSE : inversion of 
                                         H + eS - 2*(Sc)(c^T*H*c+const)(Sc)^T
  Precond_solver : DEFAULT
  stepsize       :    0.08000000                  energy_gap     :    0.08000000
  eps_taylor     :   0.10000E-15                  max_taylor     :             4
  ----------------------------------- OT ---------------------------------------

  Step     Update method      Time    Convergence         Total energy    Change
  ------------------------------------------------------------------------------
     1 OT DIIS     0.80E-01    2.0     0.01006556     -5658.8675146243 -5.66E+03
     2 OT DIIS     0.80E-01    1.5     0.00726392     -5693.9642950607 -3.51E+01
     3 OT DIIS     0.80E-01    1.5     0.00457915     -5727.0303849159 -3.31E+01
     4 OT DIIS     0.80E-01    1.5     0.00365049     -5737.1866763034 -1.02E+01
     5 OT DIIS     0.80E-01    1.5     0.00267097     -5748.6683917253 -1.15E+01
     6 OT DIIS     0.80E-01    1.5     0.00220152     -5755.5935746856 -6.93E+00
     7 OT DIIS     0.80E-01    1.5     0.00184125     -5761.7976858882 -6.20E+00
     8 OT DIIS     0.80E-01    1.5     0.00147496     -5767.7526094962 -5.95E+00
     9 OT DIIS     0.80E-01    1.5     0.00127846     -5771.3664644490 -3.61E+00
    10 OT DIIS     0.80E-01    1.5     0.00099670     -5774.6512049858 -3.28E+00
    11 OT DIIS     0.80E-01    1.5     0.00090966     -5775.4671115448 -8.16E-01
    12 OT DIIS     0.80E-01    1.5     0.00073589     -5777.2897334155 -1.82E+00
    13 OT DIIS     0.80E-01    1.5     0.00060587     -5778.6247917461 -1.34E+00
    14 OT DIIS     0.80E-01    1.5     0.00050184     -5779.5613783303 -9.37E-01
    15 OT DIIS     0.80E-01    1.5     0.00045322     -5780.0452991599 -4.84E-01
    16 OT DIIS     0.80E-01    1.5     0.00038268     -5780.5762578110 -5.31E-01
    17 OT DIIS     0.80E-01    1.5     0.00035648     -5780.7901350669 -2.14E-01
    18 OT DIIS     0.80E-01    1.4     0.00030879     -5781.1236743433 -3.34E-01
    19 OT DIIS     0.80E-01    1.4     0.00027041     -5781.3484921725 -2.25E-01
    20 OT DIIS     0.80E-01    1.4     0.00025664     -5781.4596847024 -1.11E-01
    21 OT DIIS     0.80E-01    1.5     0.00023790     -5781.6376285577 -1.78E-01
    22 OT DIIS     0.80E-01    1.4     0.00022204     -5781.7405604289 -1.03E-01
    23 OT DIIS     0.80E-01    1.5     0.00019767     -5781.9165308554 -1.76E-01
    24 OT DIIS     0.80E-01    1.5     0.00017564     -5782.0282728461 -1.12E-01
    25 OT DIIS     0.80E-01    1.5     0.00017841     -5782.0488758916 -2.06E-02
    26 OT DIIS     0.80E-01    1.4     0.00014521     -5782.1699276558 -1.21E-01
    27 OT DIIS     0.80E-01    1.5     0.00014248     -5782.2062457581 -3.63E-02
    28 OT DIIS     0.80E-01    1.4     0.00013383     -5782.2474254396 -4.12E-02
    29 OT SD       0.80E-01    1.4     0.00013138     -5782.2891339204 -4.17E-02
    30 OT DIIS     0.80E-01    1.5     0.00012649     -5782.2960430623 -6.91E-03
    31 OT DIIS     0.80E-01    1.4     0.00012066     -5782.3433996051 -4.74E-02
    32 OT DIIS     0.80E-01    1.4     0.00010760     -5782.3772316715 -3.38E-02
    33 OT DIIS     0.80E-01    1.5     0.00009658     -5782.4138657231 -3.66E-02
    34 OT DIIS     0.80E-01    1.5     0.00008994     -5782.4444425311 -3.06E-02
    35 OT DIIS     0.80E-01    1.5     0.00008517     -5782.4629985043 -1.86E-02
    36 OT DIIS     0.80E-01    1.4     0.00007950     -5782.4793342837 -1.63E-02
    37 OT DIIS     0.80E-01    1.5     0.00007775     -5782.4953526184 -1.60E-02
    38 OT DIIS     0.80E-01    1.4     0.00007567     -5782.5001737988 -4.82E-03
    39 OT DIIS     0.80E-01    1.5     0.00007327     -5782.5125295367 -1.24E-02
    40 OT DIIS     0.80E-01    1.4     0.00006890     -5782.5330971678 -2.06E-02

  Leaving inner SCF loop after reaching    40 steps.


  Electronic density on regular grids:      -1534.9999999999        0.0000000001
  Core density on regular grids:             1535.9999999995       -0.0000000005
  Total charge density on r-space grids:        0.9999999996
  Total charge density g-space grids:           0.9999999996

  Overlap energy of the core charge distribution:               0.00000000000327
  Self energy of the core charge distribution:             -12156.89556134359555
  Core Hamiltonian energy:                                   3260.11280438949507
  Hartree energy:                                            4030.01876862235395
  Exchange-correlation energy:                               -922.25387827619738

  DFT+U energy:                                                 6.48476944014720

  Total energy:                                             -5782.53309716779313

  outer SCF iter =    1 RMS gradient =   0.69E-04 energy =      -5782.5330971678

  ----------------------------------- OT ---------------------------------------
[...]
      -1.93055230     -1.93053141     -1.93050521     -1.93045543
      -1.93044469     -1.93040298     -1.93039213     -1.93036856
      -1.93034156     -1.93030798     -1.93028126     -1.93026336
      -1.93024981     -1.93020069     -1.93017043     -1.93013448
      -1.93010070     -1.93007430     -1.93003372     -1.93001195
      -1.92996357     -1.92993307     -1.92986054     -1.92984521
      -1.92984160     -1.92976823     -1.92954373     -1.92953871
      -1.92947424     -1.92944216     -1.92940326     -1.92937794
      -1.92934516     -1.92932334     -1.92914547     -1.92905895
      -1.92901369     -1.92899768     -1.92892378     -1.92882865
      -1.01082591     -1.01058864     -1.01056206     -1.01049066
      -1.01040390     -1.01035937     -1.01029533     -1.01026307
      -1.01020478     -1.00999472     -1.00992135     -1.00985436
      -1.00982517     -1.00976579     -1.00973383     -1.00968625
      -1.00958526     -1.00943594     -1.00942376     -1.00940022
      -1.00935669     -1.00927547     -1.00900238     -1.00899401
      -1.00836021     -1.00733877     -1.00731491     -1.00726297
      -1.00721473     -1.00719161     -1.00718745     -1.00710326
      -1.00707985     -1.00707388     -1.00705193     -1.00697768
      -1.00696419     -1.00695714     -1.00690758     -1.00688001
      -1.00684797     -1.00684490     -1.00679821     -1.00676154
      -1.00672478     -1.00603556     -1.00600497     -1.00594499
      -1.00589872     -1.00520142     -1.00519081     -1.00516224
      -1.00513422     -1.00488043     -1.00485024     -1.00482792
      -1.00480456     -1.00426399     -1.00423031     -1.00417551
      -1.00416103     -1.00412015     -1.00398989     -1.00395619
      -1.00387199     -1.00384003     -1.00376127     -1.00375011
      -1.00374265     -1.00363584     -1.00355942     -1.00342691
      -1.00339177     -1.00337050     -1.00333304     -1.00332124
      -1.00331042     -1.00325504     -1.00323375     -1.00320805
      -1.00318669     -1.00311602     -1.00305976     -1.00304068
      -1.00291729     -1.00289178     -1.00283981     -1.00280969
      -1.00278654     -1.00278301     -1.00275496     -1.00274040
      -1.00272078     -1.00270785     -1.00267525     -1.00265155
      -1.00261645     -1.00255776     -1.00253481     -1.00250219
      -1.00245200     -1.00242260     -1.00241288     -1.00226936
      -1.00214678     -1.00208726     -1.00205816     -1.00198165
      -1.00195090     -1.00188656     -1.00186395     -1.00182360
      -1.00181592     -1.00176964     -1.00175376     -1.00170044
      -1.00167349     -1.00161427     -1.00159056     -1.00157377
      -1.00155474     -1.00152369     -1.00148712     -1.00088083
      -1.00084800     -1.00079931     -1.00073315     -1.00005639
      -0.99999217     -0.99990116     -0.99977169     -0.99974589
      -0.99969763     -0.99968730     -0.99962948     -0.99957623
      -0.99955550     -0.99949756     -0.99939252     -0.99929049
      -0.99928298     -0.99924688     -0.99924201     -0.99920819
      -0.99917695     -0.99900642     -0.99898915     -0.99889814
      -0.99885866     -0.99882891     -0.99881121     -0.99879377
      -0.99875833     -0.99873816     -0.99871577     -0.99870271
      -0.99868547     -0.99863990     -0.99860862     -0.99858355
      -0.99856082     -0.99853104     -0.99850001     -0.99848033
      -0.99844328     -0.99840842     -0.99839752     -0.99836923
      -0.99823059     -0.99816485     -0.99787480     -0.99785043
      -0.99780528     -0.99766042     -0.99761973     -0.99755677
      -0.99755101     -0.99753484     -0.99747248     -0.99728898
      -0.99722929     -0.99717076     -0.99708841     -0.99707197
      -0.99683411     -0.99674446     -0.99671923     -0.99659064
      -0.99655425     -0.99654349     -0.99644413     -0.99640002
      -0.43733760     -0.42830830     -0.42824899     -0.42815502
      -0.42801196     -0.41787869     -0.41785244     -0.41765747
      -0.41747718     -0.41736954     -0.41731601     -0.41658433
      -0.41649636     -0.41621904     -0.41616549     -0.41517886
      -0.41507644     -0.41498287     -0.41493794     -0.40505111
      -0.40499569     -0.40485583     -0.40482909     -0.40378062
      -0.40367297     -0.40357426     -0.40340082     -0.40291390
      -0.40278298     -0.40276562     -0.40257173     -0.40180817
      -0.40170510     -0.40167426     -0.40166538     -0.40155892
      -0.40153876     -0.40140705     -0.40131220     -0.39874806
      -0.39532816     -0.39418256     -0.39410761     -0.39399548
      -0.39389534     -0.39138841     -0.39134830     -0.39096340
      -0.39056391     -0.39040944     -0.39031610     -0.39023574
      -0.39020572     -0.39009134     -0.38998855     -0.38988127
      -0.38975826     -0.38969045     -0.38916087     -0.38820198
      -0.38805982     -0.38798884     -0.38790957     -0.38694245
      -0.38672825     -0.38667378     -0.38659656     -0.38657209
      -0.38650021     -0.38638998     -0.38584554     -0.38523265
      -0.38515966     -0.38514942     -0.38508528     -0.38434790
      -0.38432504     -0.38415704     -0.38409413     -0.38365483
      -0.38359507     -0.38338751     -0.38330282     -0.38301733
      -0.38290541     -0.38277753     -0.38276116     -0.38272737
      -0.38264357     -0.38251076     -0.38243530     -0.38117750
      -0.38110553     -0.38099084     -0.38068222     -0.38057223
      -0.37917205     -0.37897604     -0.37887222     -0.37870864
      -0.37858648     -0.37853150     -0.37850008     -0.37842775
      -0.37841667     -0.37836118     -0.37832807     -0.37825109
      -0.37803884     -0.37794826     -0.37783027     -0.37771631
      -0.37759322     -0.37743876     -0.37735456     -0.37728972
      -0.37716624     -0.37714065     -0.37709210     -0.37701225
      -0.37569541     -0.37566235     -0.37555562     -0.37547534
      -0.37446999     -0.37417108     -0.37404949     -0.37341475
       0.02874968      0.02877399      0.02884885      0.02890995
       0.02950671      0.02956155      0.02959254      0.02967978
       0.03086879      0.03088647      0.03094716      0.03095771
       0.03121213      0.03125173      0.03131833      0.03136377
       0.03138727      0.03142953      0.03145574      0.03152017
       0.03255092      0.03261442      0.03264706      0.03273798
       0.03309293      0.03316831      0.03320024      0.03322169
       0.03332768      0.03336577      0.03346806      0.03358255
       0.03402926      0.03425342      0.03429174      0.03433652
       0.03442471      0.03446235      0.03451138      0.03461835
       0.03492335      0.03498741      0.03507316      0.03561602
       0.03777660      0.03781566      0.03786922      0.03798705
       0.04021495      0.04121195      0.04125433      0.04149534
       0.04158407      0.04161816      0.04173227      0.04193085
       0.04234109      0.04240037      0.04249597      0.04253554
       0.04265675      0.04273249      0.04275747      0.04283345
       0.04686591      0.04705039      0.04711168      0.04721358
       0.04931292      0.04934572      0.04942903      0.04954092
       0.05072329      0.05410607      0.05416587      0.05427367
       0.05435420      0.05488694      0.05502448      0.05512403
       0.05524546      0.05587019      0.05595669      0.05598522
       0.05599367      0.05610451      0.05618533      0.05741676
       0.05744265      0.05751371      0.05755512      0.05790139
       0.05888408      0.05892394      0.05933631      0.05941584
       0.05950316      0.05964364      0.05969611      0.06007394
       0.06024879      0.06045612      0.06046657      0.06054385
       0.06059659      0.06096186      0.06114933      0.06242977
       0.06249145      0.06255264      0.06257909      0.06895339
       0.06898534      0.06902922      0.06905580      0.06918804
       0.06923116      0.06923888      0.06929894      0.06931970
       0.06937809      0.06946557      0.06949290      0.06963236
       0.07075575      0.07081871      0.07111461      0.07128908
       0.07707005      0.07739547      0.07741608      0.07768564
       0.08148547      0.08155728      0.08170195      0.08182348
       0.08266327      0.08267891      0.08271066      0.08276240
       0.08282220      0.08285561      0.08356287      0.08365241
       0.08368819      0.08373927      0.08380822      0.08384188
       0.08395941      0.08404363      0.08410894      0.08426985
       0.09128618      0.09137466      0.09145498      0.09166020
       0.09244409      0.09262376      0.09265081      0.09288220
       0.09311393      0.09324185      0.09328187      0.09347716
       0.09796292      0.09804818      0.09812043      0.09823884
       0.09827984      0.09835669      0.09850632      0.09868180
       0.10143347      0.10150035      0.10177006      0.10178862
       0.10230792      0.10249388      0.10254610      0.10263527
       0.10265449      0.10269123      0.10271371      0.10280465
       0.10390407      0.10404108      0.10409357      0.10416872
       0.10428281      0.10445929      0.10456262      0.10471253
       0.10893336      0.10896752      0.10899349      0.10904460
       0.10925309      0.10928573      0.10935980      0.10945066
       0.10960237      0.10961770      0.10966298      0.10972232
       0.10987815      0.10993995      0.11001679      0.11023756
       0.11025659      0.11039124      0.11046959      0.11068621
       0.11069995      0.11079393      0.11086563      0.11097770
       0.11271895      0.11276026      0.11277960      0.11281055
       0.11360006      0.11365284      0.11428548      0.11439968
       0.11561928      0.11562964      0.11582999      0.11585715
       0.11807878      0.11823136      0.11876582      0.11881888
       0.11910299      0.11945777      0.11947933      0.11965189
       0.11967956      0.11993409      0.12003791      0.12043947
       0.12077512      0.12080101      0.12161393      0.12233739
       0.12270605      0.12298430      0.12305370      0.12308471
       0.12330170      0.12350519      0.12373267      0.12379113
       0.12382806      0.12387423      0.12398499      0.12430916
       0.12472129      0.12901132      0.12904982      0.12911593
       0.12915907      0.14047981      0.14054872      0.14062894
       0.14067193      0.14086688      0.14095110      0.14109670
       0.14124759      0.14474452      0.14524086      0.14681859
       0.14688331      0.14696073      0.14699463      0.14839096
       0.14850966      0.14856144      0.14860898      0.14875476
       0.14880842      0.15008973      0.15019017      0.15023101
       0.15027288      0.15102162      0.15106714      0.15112421
       0.15117678      0.15145561      0.15151316      0.15317733
       0.15319119      0.15334934      0.15344654      0.15363039
       0.15371570      0.15556266      0.15563347      0.15564539
       0.15571192      0.15628812      0.15639198      0.15671442
       0.15675428      0.16005892      0.16013642      0.16021424
       0.16031402      0.16224250      0.16227623      0.16250145
       0.16255318      0.16261162      0.16262875      0.16268792
       0.16276358      0.16281822      0.16314806      0.16333621
       0.16341799      0.16343227      0.16356658      0.16412595
       0.16498219      0.16508167      0.16511303      0.16562433
       0.17056471      0.17062512      0.17073464      0.17075902
       0.17077476      0.17081395      0.17083506      0.17095330
       0.17139561      0.17141598      0.17150931      0.17155345
       0.17158041      0.17159775      0.17164620      0.17166749
       0.17504507      0.17523371      0.17526213      0.17533445
       0.17720236      0.17731510      0.17734636      0.17736309
       0.17740802      0.17744790      0.17745539      0.17755255
       0.17879449      0.17899518      0.17930091      0.17936441
       0.17947929      0.17949798      0.18027554      0.18032238
       0.18043303      0.18055179      0.18485197      0.18500618
       0.18505669      0.18510021      0.18717826      0.18735146
       0.18744116      0.18778883      0.18806870      0.18870388
       0.18883862      0.18914723      0.19060577      0.19068142
       0.19135738      0.19237042      0.19239136
 Fermi Energy [eV] :    5.235235
  
  Lowest Eigenvalues of the unoccupied subspace spin            1
 -----------------------------------------------------
 OT| Eigensolver reached convergence in 65 iterations
       0.27215411
  
  Lowest Eigenvalues of the unoccupied subspace spin            2
 -----------------------------------------------------
 OT| Eigensolver reached convergence in 87 iterations
       0.19756655
  
 HOMO - LUMO gap [eV] :    2.174460
 HOMO - LUMO gap [eV] :    0.140824

 ENERGY| Total FORCE_EVAL ( QS ) energy [a.u.]:            -5782.851467827689703

 OPT| **************************************************************************
 OPT| Step number                                                             11
 OPT| Optimization method                                                   BFGS
 OPT| Total energy [hartree]                                    -5782.8514678277
 OPT| Effective energy change [hartree]                            -0.7944733406
 OPT| Predicted energy change [hartree]                            -0.9254999406
 OPT| Scaling factor                                                0.6524775083
 OPT| Step size                                                     0.4340518047
 OPT| Trust radius                                                  0.4724315332
 OPT| Decrease in energy                                                      NO
 OPT| Used time [s]                                                      137.214
 OPT|
 OPT| Maximum step size                                             0.4340518047
 OPT| Convergence limit for maximum step size                       0.0030000000
 OPT| Maximum step size is converged                                          NO
 OPT|
 OPT| RMS step size                                                 0.1201188808
 OPT| Convergence limit for RMS step size                           0.0015000000
 OPT| RMS step size is converged                                              NO
 OPT|
 OPT| Maximum gradient                                              0.0028193295
 OPT| Convergence limit for maximum gradient                        0.0004500000
 OPT| Maximum gradient is converged                                           NO
 OPT|
 OPT| RMS gradient                                                  0.0008789595
 OPT| Convergence limit for RMS gradient                            0.0003000000
 OPT| RMS gradient is converged                                               NO
 OPT| **************************************************************************
 OPT| Estimated peak process memory after this step [MiB]                    360

 --------------------------
 OPTIMIZATION STEP:     12
 --------------------------

 Spin 1

 Number of electrons:                                                        768
 Number of occupied orbitals:                                                768
 Number of molecular orbitals:                                               768

 Spin 2

 Number of electrons:                                                        767
 Number of occupied orbitals:                                                767
 Number of molecular orbitals:                                               767

 Number of orbital functions:                                               3328
 Number of independent orbital functions:                                   3328

 Parameters for the always stable predictor-corrector (ASPC) method:

  ASPC order: 3

  B(1) =   3.000000
  B(2) =  -3.428571
  B(3) =   1.928571
  B(4) =  -0.571429
  B(5) =   0.071429

 Parameters for the always stable predictor-corrector (ASPC) method:

  ASPC order: 3

  B(1) =   3.000000
  B(2) =  -3.428571
  B(3) =   1.928571
  B(4) =  -0.571429
  B(5) =   0.071429

 Extrapolation method: ASPC


 SCF WAVEFUNCTION OPTIMIZATION

  ----------------------------------- OT ---------------------------------------
  Minimizer      : DIIS                : direct inversion
                                         in the iterative subspace
                                         using   7 DIIS vectors
                                         safer DIIS on
  Preconditioner : FULL_SINGLE_INVERSE : inversion of 
                                         H + eS - 2*(Sc)(c^T*H*c+const)(Sc)^T
  Precond_solver : DEFAULT
  stepsize       :    0.08000000                  energy_gap     :    0.08000000
  eps_taylor     :   0.10000E-15                  max_taylor     :             4
  ----------------------------------- OT ---------------------------------------

  Step     Update method      Time    Convergence         Total energy    Change
  ------------------------------------------------------------------------------
     1 OT DIIS     0.80E-01    1.7     0.00465729     -5769.6467088076 -5.77E+03
     2 OT DIIS     0.80E-01    1.5     0.00231607     -5775.9508351310 -6.30E+00
     3 OT DIIS     0.80E-01    1.5     0.00152377     -5778.4941230498 -2.54E+00
     4 OT DIIS     0.80E-01    1.5     0.00111750     -5780.3657720164 -1.87E+00
     5 OT DIIS     0.80E-01    1.5     0.00131377     -5781.2544392005 -8.89E-01
     6 OT DIIS     0.80E-01    1.5     0.00078626     -5781.8444052763 -5.90E-01
     7 OT DIIS     0.80E-01    1.5     0.00056492     -5782.1398753333 -2.95E-01
     8 OT DIIS     0.80E-01    1.6     0.00038608     -5782.4424072436 -3.03E-01
     9 OT DIIS     0.80E-01    1.5     0.00039703     -5782.6034605372 -1.61E-01
    10 OT DIIS     0.80E-01    1.5     0.00029560     -5782.6586329342 -5.52E-02
    11 OT DIIS     0.80E-01    1.5     0.00018908     -5782.7521159443 -9.35E-02
    12 OT DIIS     0.80E-01    1.5     0.00015733     -5782.7875814997 -3.55E-02
    13 OT DIIS     0.80E-01    1.5     0.00013304     -5782.8083384437 -2.08E-02
    14 OT DIIS     0.80E-01    1.5     0.00014838     -5782.8173581121 -9.02E-03
    15 OT DIIS     0.80E-01    1.5     0.00009450     -5782.8272150370 -9.86E-03
    16 OT DIIS     0.80E-01    1.5     0.00007909     -5782.8339545821 -6.74E-03
    17 OT DIIS     0.80E-01    1.5     0.00007172     -5782.8384187819 -4.46E-03
    18 OT DIIS     0.80E-01    1.5     0.00007022     -5782.8405629164 -2.14E-03
    19 OT DIIS     0.80E-01    1.5     0.00005270     -5782.8430723203 -2.51E-03
    20 OT DIIS     0.80E-01    1.6     0.00004475     -5782.8453771825 -2.30E-03
    21 OT DIIS     0.80E-01    1.5     0.00004765     -5782.8468442466 -1.47E-03
    22 OT DIIS     0.80E-01    1.5     0.00003807     -5782.8475397574 -6.96E-04
    23 OT DIIS     0.80E-01    1.5     0.00003294     -5782.8484985821 -9.59E-04
    24 OT DIIS     0.80E-01    1.5     0.00003187     -5782.8490962872 -5.98E-04
    25 OT DIIS     0.80E-01    1.5     0.00002929     -5782.8496369956 -5.41E-04
    26 OT DIIS     0.80E-01    1.5     0.00002409     -5782.8501172398 -4.80E-04
    27 OT DIIS     0.80E-01    1.5     0.00002166     -5782.8505537169 -4.36E-04
    28 OT DIIS     0.80E-01    1.5     0.00002107     -5782.8508161522 -2.62E-04
    29 OT DIIS     0.80E-01    1.5     0.00001834     -5782.8510370062 -2.21E-04
    30 OT DIIS     0.80E-01    1.5     0.00001672     -5782.8512641564 -2.27E-04
    31 OT DIIS     0.80E-01    1.5     0.00001716     -5782.8514198988 -1.56E-04
    32 OT DIIS     0.80E-01    1.5     0.00001346     -5782.8515492003 -1.29E-04
    33 OT DIIS     0.80E-01    1.5     0.00001482     -5782.8516444075 -9.52E-05
    34 OT DIIS     0.80E-01    1.5     0.00001133     -5782.8517293637 -8.50E-05
    35 OT DIIS     0.80E-01    1.5     0.00000988     -5782.8518381717 -1.09E-04
    36 OT DIIS     0.80E-01    1.5     0.00001072     -5782.8519120251 -7.39E-05
    37 OT DIIS     0.80E-01    1.5     0.00000826     -5782.8519624819 -5.05E-05
