     192
 i =        6, E =     -5782.8510944392
Ti         0.0005453188        0.0019884152       -0.0004170394
Ti         1.8887852447        1.8882025311        4.8080067225
Ti         0.0013229304        1.8893268524        2.4029820529
Ti         1.8890020570        0.0016771186        7.2117565194
Ti         0.0014197292        3.7758246200        0.0024286008
Ti         1.8887364866       13.2381993210        4.8060717324
Ti        11.3495719429        1.8879560358        2.4046420633
Ti         5.6693223983        0.0006494301        7.2160978254
Ti         1.8884124091        3.7762705464        7.2090599727
Ti         0.0006850682       13.2368401540        2.4048325376
Ti         5.6696537381        1.8892504246        4.8039478485
Ti        11.3501724068        0.0000161716       -0.0019816756
Ti         3.7770636534        0.0003801960       -0.0034955461
Ti        13.2375224896        1.8891808539        4.8096078116
Ti        13.2371702486        0.0005174736        7.2104411106
Ti         3.7761326674        1.8879270911        2.4061851702
Ti         1.8886363514        5.6700208002        4.8121503389
Ti         0.0010461339       11.3487711537        0.0012394547
Ti         0.0008365551        5.6691656217        2.3988662409
Ti         1.8884296817       11.3493716633        7.2105457844
Ti         0.0008324482        7.5699102634        0.0050807269
Ti         1.8888934440        9.4617346162        4.8091292176
Ti         7.5696152244        1.8895391334        2.4085227366
Ti         9.4624796451        0.0014416573        7.2133801379
Ti         1.8889531499        7.5696538102        7.2064656712
Ti         0.0015240233        9.4631997400        2.4014999869
Ti         9.4625192471        1.8883358015        4.8067625677
Ti         7.5693078431        0.0020286192       -0.0062936363
Ti         3.7764901089        3.7775729421       -0.0008008064
Ti        13.2376637059       13.2370808415        4.8079269053
Ti        11.3501784805        5.6704670572        2.4003603407
Ti         5.6699104284       11.3502448833        7.2144127610
Ti        13.2378823657        3.7771519849        7.2072863261
Ti         3.7766940851       13.2380415510        2.4077742576
Ti         5.6699203842        5.6692517546        4.8079561037
Ti        11.3497455737       11.3506940520       -0.0005577803
Ti        11.3504058617       13.2383740853        2.4060470904
Ti         5.6698087057        3.7770516542        7.2132273995
Ti         3.7763500357       11.3506275056       -0.0018884770
Ti        13.2375754838        5.6690354998        4.8138288837
Ti         5.6698886377       13.2370305653        4.8022212169
Ti        11.3495166679        3.7773279836        0.0008506909
Ti        13.2377295201       11.3503515589        7.2089413452
Ti         3.7769165864        5.6706514118        2.4016147825
Ti         3.7769355146        7.5680506784        0.0022052588
Ti        13.2372539822        9.4627688428        4.8110050719
Ti         7.5688056021        5.6692609612        2.4045246119
Ti         9.4619605964       11.3495169750        7.2119520821
Ti        13.2372839429        7.5689940535        7.2049298604
Ti         3.7761803639        9.4618428022        2.4048624699
Ti         9.4622194215        5.6701044623        4.8108984080
Ti         7.5698337803       11.3489039509       -0.0045848615
Ti        11.3496352752        9.4617261607        2.4032547833
Ti         5.6694081130        7.5688893220        7.2106395799
Ti         5.6698547910        9.4627030597        4.8050361322
Ti        11.3501243766        7.5684388450        0.0035616311
Ti         9.4619962711        3.7761109139        7.2103844037
Ti         7.5689044618       13.2367478861        2.4104821198
Ti         7.5695023210        3.7758434609       -0.0032150291
Ti         9.4622194401       13.2380765725        4.8051478113
Ti         7.5690496001        7.5698367909       -0.0005217248
Ti         9.4623877915        9.4617013012        4.8080795937
Ti         7.5693351019        9.4629466228        2.4074057145
Ti         9.4624922454        7.5697989671        7.2076785599
O         0.0013021936        0.0013647862        1.9933651341
O         1.8848473504        1.8878388610        6.8012846082
O         0.0015294395        1.8844011863        4.3974461785
O         1.8874583248        0.0012477110        9.2060882787
O         1.8834577102        0.0015179567        5.2172998743
O        -0.0001270729        1.8877073358        0.4104801528
O         1.8877229738        1.8835141805        2.8133035987
O         0.0018043479       -0.0002969755        7.6222115118
O         0.0011168712        3.7760738930        1.9904051734
O         1.8848558547       13.2368128979        6.8019205066
O        11.3511317157        1.8849547700        4.3971152955
O         5.6723511330        0.0016179098        9.2064634784
O         1.8839415401        3.7760309287        5.2187465225
O         0.0002994758       13.2371477131        0.4090601034
O         5.6720747035        1.8834147642        2.8121343502
O        11.3510187452        0.0004551285        7.6224253928
O         3.7759931949        0.0004125449        7.6246937113
O        13.2368297594        1.8831762016        2.8128321752
O        13.2369166801        0.0017477643        9.2055628443
O         3.7761278014        1.8851299877        4.3950588081
O         1.8850109789        5.6721242713        6.8025261966
O         0.0011196686       11.3511778089        1.9924414471
O         0.0002095672        5.6723282975        0.4085768468
O         1.8837329985       11.3511451993        5.2166264131
O         0.0011943716        7.5667500766        1.9942959870
O         1.8850396642        9.4628083094        6.7990930895
O         7.5668190828        1.8845524509        4.3982360781
O         9.4626394976        0.0014551045        9.2038821765
O         1.8837481474        7.5667367636        5.2164792056
O         0.0000642742        9.4624647400        0.4124935180
O         9.4627858740        1.8837241620        2.8154038821
O         7.5668323787       -0.0001083342        7.6212702766
O         3.7696243212        0.0015921593        1.9928317315
O        13.2386101075        1.8875774758        6.8016643327
O         0.0017214425        5.6566598004        4.3969431241
O         1.8876531989       11.3554847897        9.2058331805
O        13.2373619073        0.0017664145        5.2168418300
O         3.7685285988        1.8880522608        0.4090721279
O         1.8878117109        5.6548294775        2.8133538635
O         0.0017954085       11.3542593134        7.6222300595
O        11.3538206389        1.8878961801        0.4092668365
O         5.6553724246        0.0017718448        5.2167995557
O         5.6567132564        1.8877365590        6.8015890524
O        11.3548392539        0.0017860795        1.9928213882
O         1.8878748238        3.7699851468        9.2058851059
O         0.0017916725       13.2385627921        4.3972233828
O         0.0017066023        3.7688092586        7.6220178669
O         1.8875375431       13.2368462406        2.8132491827
O         3.7701311901        3.7757089409        1.9916933684
O        13.2386634276       13.2369093461        6.8011012615
O        11.3507371019        5.6563179369        4.3971366841
O         5.6720049018       11.3548949145        9.2070520046
O        13.2370539486        3.7757933586        5.2197560058
O         3.7681319067       13.2369151580        0.4098512241
O         5.6721323368        5.6558107084        2.8125244525
O        11.3509903733       11.3535626314        7.6219723476
O        11.3535413128       13.2367387896        0.4103103297
O         5.6556551292        3.7760190706        5.2195084704
O         3.7760076531       11.3534515042        7.6242580238
O        13.2369922182        5.6550480517        2.8134540350
O         5.6563891979       13.2369362104        6.8011887381
O        11.3547797362        3.7757168918        1.9915381139
O        13.2367177018       11.3552198108        9.2062329619
O         3.7760170208        5.6566441148        4.3953110180
O         5.6571274020        5.6722632936        6.8021524496
O        11.3549460039       11.3508104564        1.9936891589
O        13.2366840765        3.7697378147        9.2064876328
O         3.7759891086       13.2379448973        4.3952622823
O        11.3535109594        5.6720058247        0.4095743515
O         5.6553300565       11.3507235540        5.2175342778
O         3.7759915371        3.7686905330        7.6237651833
O        13.2370033342       13.2371749471        2.8135855584
O        13.2372111736       11.3508656034        5.2176072229
O         3.7688196819        5.6718806922        0.4093834049
O         5.6721697466       13.2372556711        2.8126589760
O        11.3510972317        3.7683573821        7.6217947322
O         3.7699426609       11.3507822936        1.9934632448
O        13.2383811331        5.6723719884        6.8019588575
O        11.3508021920       13.2380758275        4.3972895155
O         5.6719804537        3.7699666026        9.2071287222
O         3.7699820713        7.5672574089        1.9937312940
O        13.2385361588        9.4627400658        6.7994420786
O         7.5670691089        5.6572215741        4.3980447885
O         9.4629160361       11.3553052154        9.2036726650
O        13.2374289142        7.5669586515        5.2159402684
O         3.7689115463        9.4628435110        0.4108208325
O         9.4625477399        5.6553103943        2.8150579607
O         7.5668200782       11.3540566556        7.6214448196
O        11.3536873632        9.4629981604        0.4113711945
O         5.6560826806        7.5669950300        5.2158128793
O         5.6569270611        9.4625713699        6.7996540305
O        11.3546022747        7.5670181552        1.9936793980
O         9.4627625150        3.7704307130        9.2038324235
O         7.5670159263       13.2384650113        4.3979424863
O         7.5669344194        3.7693883658        7.6210471939
O         9.4627494422       13.2368199732        2.8153761012
O         7.5835514135        0.0013647058        1.9934991427
O         9.4700292895        1.8877262448        6.8014499523
O         0.0014238931        9.4698104794        4.3978248845
O         1.8876802204        7.5835188948        9.2059740417
O         9.4688100738        0.0015660886        5.2171676635
O         7.5818887711        1.8877560262        0.4105948278
O         1.8877892917        9.4686574090        2.8133956605
O         0.0017079461        7.5821975554        7.6221238822
O         7.5828385168        3.7762771263        1.9907638274
O         9.4701925987       13.2368313391        6.8020163004
O        11.3509441287        9.4701695082        4.3972614568
O         5.6722046335        7.5832863657        9.2065705817
O         9.4686230756        3.7761177378        5.2186161109
O         7.5820617665       13.2371763190        0.4093065884
O         5.6719026698        9.4680886805        2.8121277999
O        11.3509239814        7.5825593116        7.6223509540
O         3.7761274214        7.5822870394        7.6242649626
O        13.2369374784        9.4683809602        2.8128958112
O        13.2369398360        7.5839377214        9.2056639909
O         3.7761867842        9.4698325926        4.3955362158
O         9.4697104562        5.6720538389        6.8028769086
O         7.5833422777       11.3509487276        1.9925088510
O         7.5816906321        5.6722831217        0.4084626910
O         9.4690001692       11.3510447759        5.2165205822
O         7.5828867871        7.5667692135        1.9944989049
O         9.4697134813        9.4628832312        6.7994362112
O         7.5669363613        9.4692858331        4.3985426104
O         9.4624727636        7.5831231508        9.2040968297
O         9.4684548665        7.5666968541        5.2163450296
O         7.5815989870        9.4624316854        0.4123841367
O         9.4627699079        9.4684826005        2.8151958311
O         7.5669239840        7.5814742014        7.6210512332
     192
 i =        7, E =     -5782.8516866877
Ti         0.0006234822        0.0026477868       -0.0008713361
Ti         1.8886576533        1.8880762747        4.8082832633
Ti         0.0016212341        1.8897240778        2.4036411615
Ti         1.8888457356        0.0017638391        7.2110356312
Ti         0.0017348628        3.7754355895        0.0022954888
Ti         1.8884665709       13.2382428620        4.8065454774
Ti        11.3495893439        1.8875013283        2.4052932559
Ti         5.6692371130        0.0005352012        7.2158014404
Ti         1.8882238918        3.7759712873        7.2081834487
Ti         0.0008295489       13.2363157099        2.4056240591
Ti         5.6696535391        1.8893018680        4.8038903727
Ti        11.3502315029       -0.0002995969       -0.0022326543
Ti         3.7775216545       -0.0001111446       -0.0038952369
Ti        13.2373056630        1.8892828047        4.8098991932
Ti        13.2368810150        0.0005266961        7.2097646292
Ti         3.7760438650        1.8876617934        2.4069637383
Ti         1.8884866323        5.6701454328        4.8126354539
Ti         0.0014771904       11.3482231745        0.0008499318
Ti         0.0007669786        5.6690174533        2.3992585204
Ti         1.8881078916       11.3494765543        7.2098862758
Ti         0.0008058173        7.5701122171        0.0050954154
Ti         1.8887942191        9.4614546205        4.8096988352
Ti         7.5694964496        1.8897986597        2.4093631596
Ti         9.4625393084        0.0016685998        7.2130140857
Ti         1.8888901410        7.5696656447        7.2055366572
Ti         0.0017546900        9.4632941387        2.4019922350
Ti         9.4624417219        1.8880646120        4.8067910781
Ti         7.5689956125        0.0026275204       -0.0067734075
Ti         3.7764626578        3.7778895771       -0.0010194109
Ti        13.2375647332       13.2367036516        4.8082941018
Ti        11.3503643766        5.6708580389        2.4004652766
Ti         5.6698417671       11.3504521544        7.2141852583
Ti        13.2378134521        3.7771570133        7.2065029342
Ti         3.7768926327       13.2382458404        2.4083668156
Ti         5.6698788212        5.6692148429        4.8081771759
Ti        11.3495045300       11.3512554094       -0.0008189435
Ti        11.3505166896       13.2385342505        2.4066128520
Ti         5.6698069732        3.7770027919        7.2127259628
Ti         3.7764031360       11.3510832637       -0.0023830574
Ti        13.2374564397        5.6690935073        4.8142807640
Ti         5.6699046780       13.2368319560        4.8022014854
Ti        11.3494527286        3.7777035538        0.0007036939
Ti        13.2377121401       11.3506334480        7.2082662620
Ti         3.7770365582        5.6708830439        2.4020098131
Ti         3.7771917957        7.5676764363        0.0021669805
Ti        13.2372226951        9.4628126809        4.8114753700
Ti         7.5687189914        5.6690282415        2.4050097198
Ti         9.4619565511       11.3494976820        7.2116509963
Ti        13.2371661611        7.5687977649        7.2041527517
Ti         3.7761734850        9.4615635233        2.4053912223
Ti         9.4621620108        5.6701772104        4.8111283166
Ti         7.5696879491       11.3484878577       -0.0050952633
Ti        11.3495425838        9.4614820403        2.4037216744
Ti         5.6692670387        7.5688235907        7.2101595758
Ti         5.6696670027        9.4627668084        4.8052455804
Ti        11.3502650760        7.5677487482        0.0037391981
Ti         9.4618575784        3.7759471261        7.2099335983
Ti         7.5685837747       13.2363845722        2.4113084776
Ti         7.5694094302        3.7755908284       -0.0035411961
Ti         9.4622815578       13.2380794256        4.8052489424
Ti         7.5688363893        7.5699727735       -0.0007027706
Ti         9.4623361983        9.4615995257        4.8082682164
Ti         7.5693060302        9.4630500464        2.4079110684
Ti         9.4625507387        7.5696600111        7.2071748440
O         0.0014154153        0.0011015581        1.9937481431
O         1.8853253691        1.8873335498        6.8012961842
O         0.0013646290        1.8852868536        4.3973897636
O         1.8871739167        0.0020154702        9.2077341915
O         1.8840794494        0.0016005121        5.2173623706
O         0.0000433120        1.8875211612        0.4093233333
O         1.8875626829        1.8833429003        2.8126271618
O         0.0017821836        0.0002174709        7.6224438281
O         0.0014818991        3.7757629030        1.9909991125
O         1.8855611921       13.2368551141        6.8018177163
O        11.3512202682        1.8851723546        4.3969375081
O         5.6721679708        0.0018735781        9.2076940973
O         1.8838190117        3.7758370706        5.2184188443
O        -0.0003017750       13.2374206855        0.4076445061
O         5.6719663394        1.8835771276        2.8114532530
O        11.3513930523        0.0000476402        7.6224388153
O         3.7757487872        0.0002676484        7.6245942622
O        13.2370090144        1.8833699979        2.8123558146
O        13.2368638651        0.0017053086        9.2068259282
O         3.7757651551        1.8852586202        4.3949957327
O         1.8855667043        5.6718957587        6.8026637017
O         0.0013688309       11.3511327079        1.9927487820
O         0.0000208143        5.6724518409        0.4070398008
O         1.8837836527       11.3513580260        5.2164350162
O         0.0015621907        7.5664159434        1.9950260637
O         1.8854547387        9.4631116228        6.7994391260
O         7.5666924872        1.8854233490        4.3985738381
O         9.4626237733        0.0019823219        9.2054893706
O         1.8841188689        7.5666852211        5.2162103619
O         0.0000730140        9.4628832662        0.4113492579
O         9.4630936687        1.8836601056        2.8145115651
O         7.5670426971        0.0001883983        7.6212443456
O         3.7703462856        0.0015854092        1.9931460066
O        13.2386319411        1.8872063759        6.8018361179
O         0.0016551526        5.6569079052        4.3968607006
O         1.8873897363       11.3549673149        9.2069247979
O        13.2367764617        0.0017152303        5.2165437172
O         3.7683244284        1.8876842782        0.4077186903
O         1.8875238781        5.6542547232        2.8125404414
O         0.0017681814       11.3530255939        7.6225476917
O        11.3531025116        1.8877807595        0.4080507260
O         5.6546489132        0.0017929684        5.2167783784
O         5.6572750262        1.8873278898        6.8015727679
O        11.3546000467        0.0015378784        1.9930055951
O         1.8875231574        3.7706509393        9.2067272003
O         0.0015965448       13.2382063588        4.3970966005
O         0.0017593594        3.7690211473        7.6222275042
O         1.8874475971       13.2366596757        2.8126796049
O         3.7707174740        3.7751846102        1.9923184602
O        13.2383184897       13.2369929052        6.8014000702
O        11.3509065281        5.6569603839        4.3972921078
O         5.6717036190       11.3550379726        9.2084059122
O        13.2370714819        3.7756879284        5.2194359716
O         3.7684650094       13.2369759293        0.4088569157
O         5.6721675477        5.6553128709        2.8117463772
O        11.3514751364       11.3531945238        7.6224594801
O        11.3533586923       13.2370051027        0.4095511639
O         5.6555395780        3.7757917027        5.2192384185
O         3.7757106600       11.3530321451        7.6244577841
O        13.2369903775        5.6541751742        2.8127649307
O         5.6568620147       13.2368909228        6.8011484269
O        11.3544903912        3.7751087621        1.9921476926
O        13.2366747375       11.3553435024        9.2074992893
O         3.7756270460        5.6573635879        4.3956529162
O         5.6575688934        5.6721635363        6.8024867309
O        11.3547799222       11.3508229661        1.9940712528
O        13.2366596584        3.7706648329        9.2075226205
O         3.7754823480       13.2383039486        4.3955189632
O        11.3531791907        5.6719332662        0.4084688113
O         5.6552166485       11.3510116986        5.2174765361
O         3.7758117991        3.7693415237        7.6239889061
O        13.2371452332       13.2366320007        2.8128019365
O        13.2370144379       11.3510478906        5.2173150442
O         3.7690469613        5.6719586216        0.4082894644
O         5.6721729914       13.2365713072        2.8118064964
O        11.3514286771        3.7689581769        7.6220101746
O         3.7704912244       11.3508404393        1.9938635498
O        13.2383319460        5.6722015216        6.8023315910
O        11.3510824948       13.2384523237        4.3975956412
O         5.6716396189        3.7709756642        9.2081460488
O         3.7705520169        7.5670928847        1.9943703725
O        13.2384946105        9.4629796048        6.7998864360
O         7.5670010620        5.6575481280        4.3982198492
O         9.4628405323       11.3548767893        9.2048323547
O        13.2367778838        7.5671059026        5.2155768337
O         3.7686882017        9.4634898240        0.4094368748
O         9.4629671333        5.6547862262        2.8142569978
O         7.5669557217       11.3531245399        7.6213094269
O        11.3530816265        9.4635169628        0.4099331254
O         5.6557459729        7.5670763222        5.2155806155
O         5.6577189089        9.4628902051        6.7999093539
O        11.3544727891        7.5670057605        1.9943190368
O         9.4629033612        3.7708746731        9.2049095967
O         7.5670155331       13.2381079536        4.3981800368
O         7.5670234138        3.7693329875        7.6208940990
O         9.4629490039       13.2366189184        2.8144023125
O         7.5839951624        0.0011905709        1.9939903343
O         9.4697174844        1.8874525058        6.8015504524
O         0.0014516579        9.4699441597        4.3978707309
O         1.8873040661        7.5841666854        9.2071461380
O         9.4683842682        0.0015194110        5.2173299397
O         7.5815104920        1.8876709638        0.4096852129
O         1.8876316906        9.4678561666        2.8128382172
O         0.0018229873        7.5816795020        7.6225677537
O         7.5830260484        3.7758410340        1.9913476011
O         9.4701324327       13.2368519917        6.8019745490
O        11.3512005964        9.4695537023        4.3973240166
O         5.6720249235        7.5833984934        9.2075125310
O         9.4678230023        3.7758084367        5.2184120112
O         7.5814935362       13.2373418247        0.4081141601
O         5.6718992213        9.4675930566        2.8116030373
O        11.3512757713        7.5818893420        7.6224796739
O         3.7758663713        7.5813266171        7.6242879658
O        13.2369086170        9.4679351725        2.8124230280
O        13.2367998013        7.5844764355        9.2065523502
O         3.7757019649        9.4693643944        4.3954471640
O         9.4696709664        5.6718193637        6.8028850700
O         7.5835785307       11.3510420895        1.9930286592
O         7.5808338308        5.6724150827        0.4072158165
O         9.4681371164       11.3513218322        5.2165423249
O         7.5829936392        7.5664689679        1.9951946815
O         9.4694102662        9.4629809944        6.7996859407
O         7.5667455440        9.4693795124        4.3988182382
O         9.4626374340        7.5839239411        9.2054458548
O         9.4680494482        7.5667127103        5.2162480685
O         7.5811063741        9.4627887195        0.4112018167
O         9.4630428309        9.4676209372        2.8143851986
O         7.5670680502        7.5810420543        7.6210532427
     192
 i =        8, E =     -5781.4480557781
Ti         0.0315995656       -0.0214184354        0.0480434408
Ti         1.8748834668        1.9261293347        4.7693611010
Ti        -0.0240129862        1.8400980672        2.6244070618
Ti         1.8751345307       -0.0325040784        7.0304782477
Ti        -0.0173751601        3.8475990278        0.0149758568
Ti         1.9001659370       13.1964897447        4.7736967848
Ti        11.3727263606        1.9583678334        2.5745177080
Ti         5.6900552244        0.0351192718        7.0099221911
Ti         1.9084269983        3.8069092977        7.0248302855
Ti         0.0247340147       13.3009166724        2.6132234133
Ti         5.6693957766        1.8544813449        4.7785924988
Ti        11.3045656841        0.0736152780        0.0203649285
Ti         3.7718462559        0.0695612346        0.0253242515
Ti        13.2461509047        1.8497794111        4.7836079903
Ti        13.2657013814        0.0403857328        6.9597646292
Ti         3.8062776953        1.9434103771        2.5523160497
Ti         1.8930649093        5.6362963679        4.7710131630
Ti        -0.0088451258       11.3711066430        0.0290670747
Ti         0.0283404679        5.7182884707        2.5567944043
Ti         1.9198359497       11.3715792514        6.9686315916
Ti         0.0260291267        7.4871116575        0.0445589356
Ti         1.8670183510        9.5174614539        4.7695775201
Ti         7.5527746460        1.8349199745        2.5852171578
Ti         9.4475256917       -0.0314747497        7.0303430100
Ti         1.8737185342        7.5289444307        7.0635915823
Ti        -0.0297854924        9.4124966363        2.6417004167
Ti         9.4555417750        1.9258484625        4.7699262340
Ti         7.5686584580       -0.0392824252        0.0619359646
Ti         3.8016204626        3.7438153899        0.0485485931
Ti        13.2194723870       13.2866811533        4.7663285015
Ti        11.3283255241        5.6102654341        2.5931530467
Ti         5.6550793902       11.3132399410        7.0562342978
Ti        13.2185736728        3.7378085688        7.0571409344
Ti         3.7541221623       13.1949788905        2.6246949130
Ti         5.6511839177        5.6990677775        4.7771424700
Ti        11.3361832453       11.2689866717        0.0617699833
Ti        11.3198180420       13.1801563581        2.6555445943
Ti         5.6542094378        3.7451962862        7.0759829714
Ti         3.8208048709       11.2807007978        0.0507716241
Ti        13.2267809261        5.7045503228        4.7684743182
Ti         5.6478489323       13.2798817794        4.7717497965
Ti        11.3541968673        3.7505006646        0.0449172031
Ti        13.2192045006       11.3043080994        7.0001215938
Ti         3.7482739001        5.6133313701        2.5806034008
Ti         3.7694213098        7.5942054549        0.0171041383
Ti        13.2479056214        9.4365092308        4.7659640982
Ti         7.6013734857        5.7116919845        2.5309364182
Ti         9.4805770275       11.3714761961        6.9914669398
Ti        13.2541314114        7.5911054527        7.0106386701
Ti         3.7949432426        9.5165944369        2.5552799965
Ti         9.4776066695        5.6349056021        4.7744764948
Ti         7.5315047773       11.3813959770        0.0346841498
Ti        11.3813982756        9.5215144203        2.5780028936
Ti         5.6915299317        7.5864567149        7.0455987094
Ti         5.6714794835        9.4404732895        4.7802044141
Ti        11.3132085625        7.5931428561        0.0188845899
Ti         9.4908554479        3.8024052153        7.0296659274
Ti         7.6119393501       13.2952134421        2.5541786082
Ti         7.5450379702        3.8302303372        0.0205427964
Ti         9.4757496013       13.2064839153        4.7647629760
Ti         7.5753973074        7.5136436110        0.0402799673
Ti         9.4598003280        9.5060511226        4.7686444999
Ti         7.5597693897        9.4253846311        2.5818736533
Ti         9.4496139251        7.5338429778        7.0697450588
O        -0.0140026915        0.0070453716        1.8726911071
O         1.8636272826        1.9071165421        6.8564870274
O         0.0252382323        1.8607534984        4.3410282578
O         1.9018500971       -0.0248796023        9.2584107865
O         1.8746769645        0.0027691176        5.2816712504
O         0.0039987372        1.8999179823        0.3076086840
O         1.8822248713        1.8797211630        2.7966165005
O        -0.0025604934       -0.0039818220        7.7030480157
O        -0.0130114495        3.7623955490        1.8832979492
O         1.8497184300       13.2443876299        6.8615355157
O        11.3356898296        1.8700345767        4.3587122361
O         5.6655102773       -0.0113844554        9.2605644982
O         1.8949949143        3.7636601569        5.3100109050
O         0.0211264149       13.2077660700        0.3113921962
O         5.6761966955        1.8806734853        2.8108028682
O        11.3301865763        0.0100587949        7.7119922321
O         3.7721922095        0.0024970620        7.7087240287
O        13.2315651196        1.8758871379        2.7880511898
O        13.2307199239       -0.0075405283        9.2960347728
O         3.7766387295        1.8737353046        4.3518481230
O         1.8601564247        5.6856355178        6.8359655611
O        -0.0099540845       11.3471097963        1.8832310133