     192
 i =        6, E =     -5782.8510944392
Ti         0.0002229486        0.0003226747       -0.0004144445
Ti         0.0000369636       -0.0000067081        0.0003062255
Ti         0.0001673866        0.0003779052        0.0007187733
Ti        -0.0000690693        0.0001220644       -0.0008066042
Ti         0.0002731405       -0.0001971337       -0.0002824371
Ti         0.0000295898       -0.0001376046        0.0004708823
Ti        -0.0001117123        0.0000330515        0.0006747284
Ti        -0.0000540279        0.0000927505       -0.0005102148
Ti        -0.0000921585        0.0000298363       -0.0006448563
Ti         0.0000904385       -0.0001811104        0.0008300863
Ti         0.0001594117        0.0000436465        0.0001269726
Ti         0.0000404626       -0.0001577018       -0.0001851057
Ti         0.0003472569       -0.0001605016       -0.0002512317
Ti        -0.0001033047        0.0000361377        0.0002451447
Ti        -0.0002664538        0.0001268596       -0.0006843169
Ti         0.0000299458        0.0000476310        0.0007124297
Ti         0.0000532221        0.0000966797        0.0003906085
Ti         0.0003733239       -0.0004560278       -0.0004077543
Ti         0.0000687118        0.0001315258        0.0006168094
Ti        -0.0001085398        0.0000188874       -0.0006451259
Ti         0.0001733364       -0.0001030235       -0.0002539158
Ti         0.0000155732       -0.0001486107        0.0003531158
Ti        -0.0001447672        0.0002689102        0.0006115098
Ti        -0.0001372956        0.0001818332       -0.0006423042
Ti        -0.0000154672       -0.0000163818       -0.0007035385
Ti         0.0001650252        0.0001079767        0.0006342016
Ti        -0.0000597059       -0.0000362127        0.0001947899
Ti        -0.0000994475        0.0002722058       -0.0003210287
Ti         0.0001871646        0.0001528280       -0.0002847002
Ti        -0.0001248678       -0.0002400428        0.0003247143
Ti        -0.0000192568        0.0003549150        0.0003498459
Ti        -0.0000389650        0.0000165357       -0.0004272693
Ti        -0.0001925782        0.0000817970       -0.0005707519
Ti         0.0001215311        0.0000763747        0.0005075482
Ti         0.0000568945        0.0000481247        0.0002015840
Ti        -0.0000877121        0.0000434083       -0.0003047119
Ti        -0.0000667906        0.0001076280        0.0004909025
Ti         0.0000068292        0.0000626013       -0.0004418582
Ti         0.0002055327        0.0000213956       -0.0003942060
Ti        -0.0001268239        0.0000701383        0.0002717459
Ti         0.0001323371       -0.0001711693        0.0002159091
Ti        -0.0000304876        0.0001955626       -0.0002567560
Ti        -0.0001445793        0.0000675601       -0.0006350597
Ti         0.0000889569        0.0002542830        0.0004505147
Ti         0.0002709581       -0.0003280552       -0.0001827838
Ti        -0.0000849112       -0.0000860831        0.0002560816
Ti        -0.0001315160        0.0001038730        0.0004737441
Ti        -0.0001787028        0.0000017608       -0.0005209526
Ti        -0.0002072346       -0.0000797940       -0.0005918676
Ti         0.0000418870       -0.0000830352        0.0006135100
Ti        -0.0000343855        0.0000632408        0.0002789754
Ti        -0.0000232953       -0.0003319477       -0.0003484428
Ti        -0.0001083407       -0.0000923983        0.0006117051
Ti        -0.0000541163       -0.0000500362       -0.0004667234
Ti         0.0000766904       -0.0001002194        0.0001924788
Ti         0.0000526715       -0.0004879592       -0.0000896160
Ti        -0.0001826445        0.0000462600       -0.0004889083
Ti        -0.0002053208       -0.0001440368        0.0006360439
Ti         0.0000002666       -0.0001266985       -0.0002547080
Ti         0.0000048550       -0.0001246828        0.0003034522
Ti        -0.0000741855       -0.0001040514       -0.0002130168
Ti        -0.0000396939       -0.0000753285        0.0002032533
Ti        -0.0000755555        0.0000845873        0.0005116001
Ti        -0.0001181602       -0.0000702253       -0.0005399003
O         0.0000042460       -0.0001300765        0.0001422404
O         0.0000668538       -0.0002695968       -0.0000627442
O        -0.0000006272        0.0001328837       -0.0002304890
O        -0.0003575778        0.0000976326        0.0006332025
O         0.0001230484        0.0000945197        0.0002438886
O         0.0000498056       -0.0001616051       -0.0005933213
O        -0.0001699776        0.0000097604       -0.0002838837
O         0.0001131055        0.0001022269        0.0002272113
O         0.0000451408       -0.0002910242        0.0002785331
O         0.0000980239       -0.0000171779       -0.0002045392
O         0.0001019177        0.0000271479       -0.0002317343
O        -0.0001692702        0.0000159907        0.0004876649
O         0.0000099011       -0.0001197600        0.0001730029
O        -0.0000696997        0.0001303649       -0.0005080745
O         0.0000109533        0.0000626613       -0.0001876295
O         0.0002951257       -0.0000454258        0.0000426272
O        -0.0000327150       -0.0000059461        0.0000459677
O         0.0000402627        0.0000688809       -0.0001557317
O        -0.0000920610       -0.0000293495        0.0005243480
O        -0.0002006313        0.0000129449       -0.0002330567
O         0.0000763313       -0.0000587994       -0.0001044680
O         0.0000273573        0.0000393313        0.0002416383
O        -0.0000092625        0.0001561474       -0.0005498670
O         0.0000368115        0.0001946394        0.0001786812
O         0.0000427737       -0.0002145629        0.0002202331
O         0.0000561334        0.0001118064       -0.0000208288
O        -0.0000702788        0.0001316272       -0.0000798157
O         0.0000623347        0.0000592596        0.0005548760
O         0.0000840577        0.0000201816        0.0001367553
O         0.0000231020        0.0003948782       -0.0005473437
O         0.0002287128        0.0000233023       -0.0002805947
O         0.0001462919        0.0000662935        0.0001050622
O         0.0001019974       -0.0000246871        0.0002214712
O        -0.0000230790       -0.0002337196       -0.0000650384
O         0.0000143885        0.0000169209       -0.0001766054
O        -0.0003553578       -0.0001183107        0.0004993131
O        -0.0000751414        0.0000362886        0.0001870407
O         0.0000039223       -0.0001884916       -0.0005212112
O        -0.0001935173       -0.0000427685       -0.0003148323
O         0.0000709734       -0.0001847450        0.0001933771
O        -0.0001015305       -0.0001063926       -0.0004722450
O        -0.0000841848        0.0000441117        0.0001852971
O         0.0000676051       -0.0001967033       -0.0000620417
O        -0.0000612067       -0.0001239698        0.0001524041
O        -0.0003454257        0.0000892315        0.0004286366
O        -0.0000492290       -0.0000743476       -0.0003041833
O         0.0001174739        0.0000551262        0.0001101981
O        -0.0001654846       -0.0000058282       -0.0002584526
O         0.0000782320       -0.0002834560        0.0002103239
O        -0.0000761785       -0.0000473396       -0.0000036176
O         0.0001503140        0.0000866580       -0.0000145179
O        -0.0001537071       -0.0000134066        0.0004716824
O         0.0000162711       -0.0000761886        0.0001194512
O         0.0000874914        0.0000801609       -0.0004755330
O         0.0000253714       -0.0000431233       -0.0002852848
O         0.0003065036       -0.0000476041        0.0002332827
O        -0.0000183945        0.0001376347       -0.0004234573
O         0.0000077832       -0.0001075053        0.0000721376
O        -0.0000230960       -0.0000549396        0.0001881541
O        -0.0000179072       -0.0000970182       -0.0002768226
O         0.0000574086       -0.0000671005       -0.0000542175
O        -0.0000703159       -0.0003395491        0.0001800947
O        -0.0000808556       -0.0000203739        0.0004732688
O        -0.0001618354        0.0000972842       -0.0000227820
O         0.0000539871       -0.0000373160        0.0000441766
O        -0.0000535002        0.0000292755        0.0001397469
O        -0.0000805043        0.0001288953        0.0004001241
O        -0.0002160949        0.0000400087       -0.0001128609
O        -0.0000432809        0.0001075777       -0.0004877472
O         0.0000092242        0.0002334434        0.0000855332
O        -0.0000150655        0.0001263439        0.0001467993
O         0.0000378144       -0.0000639904       -0.0003095499
O        -0.0000171786        0.0002361705        0.0001008242
O         0.0000641066        0.0001155286       -0.0005074535
O         0.0000567281       -0.0000861120       -0.0002932074
O         0.0002578956        0.0001225106        0.0001235440
O         0.0000719497        0.0000541048        0.0002041159
O        -0.0000267980       -0.0000608352        0.0000243696
O         0.0001899441        0.0000402670       -0.0000636431
O        -0.0001728376        0.0001438269        0.0003871505
O         0.0000809369       -0.0001397659        0.0002813637
O        -0.0000316064        0.0001168838       -0.0000142174
O        -0.0000464082        0.0000339870       -0.0000655005
O         0.0000346005       -0.0001042424        0.0004395050
O        -0.0000861119        0.0000460406        0.0001364437
O        -0.0000039844        0.0003532196       -0.0004792041
O         0.0002238482       -0.0000416359       -0.0002456310
O         0.0001170665       -0.0001409566        0.0000409494
O        -0.0000848299        0.0003495917       -0.0004969998
O        -0.0000272231        0.0000287077        0.0001103302
O         0.0001016122        0.0001389255       -0.0000281693
O        -0.0000438703       -0.0001066717        0.0002447938
O         0.0001011452        0.0000505175        0.0004113062
O        -0.0000652037       -0.0000718826       -0.0001375784
O         0.0000976941        0.0000112013       -0.0000062596
O         0.0001891609       -0.0000083003       -0.0002949389
O         0.0000455409       -0.0000769558        0.0001838322
O        -0.0000788731       -0.0002091571        0.0000081243
O         0.0000640572       -0.0000077154       -0.0001713721
O        -0.0003157826        0.0000667871        0.0004941435
O        -0.0000599878        0.0000626835        0.0002097670
O        -0.0000331023       -0.0001166183       -0.0005196009
O        -0.0001719298       -0.0001096773       -0.0002900308
O         0.0001307627       -0.0000561329        0.0001885003
O         0.0000125173       -0.0002923253        0.0002949466
O        -0.0000456392       -0.0000470947       -0.0001193858
O         0.0001510287       -0.0001242013       -0.0001325946
O        -0.0001359295       -0.0000169087        0.0004010576
O        -0.0001142831       -0.0001341639        0.0001408607
O        -0.0000555446        0.0000393510       -0.0004374152
O         0.0000243920       -0.0000579906       -0.0001842802
O         0.0002300250       -0.0000910216        0.0000033448
O        -0.0000619624       -0.0001336213        0.0000166828
O        -0.0000509321       -0.0000500746       -0.0001828662
O        -0.0001366489        0.0000470346        0.0003996859
O        -0.0002172249       -0.0000993922       -0.0002000757
O        -0.0000379131       -0.0000492597       -0.0000956282
O         0.0000142393        0.0000789932        0.0003164851
O        -0.0001081333        0.0001367265       -0.0004596497
O        -0.0001287737        0.0001891987        0.0001861824
O        -0.0000055871       -0.0001669140        0.0002383587
O        -0.0000737336        0.0000712007        0.0000112224
O        -0.0000625425       -0.0000078686       -0.0000616227
O         0.0001104354        0.0000926755        0.0004662269
O        -0.0000558632        0.0000250111        0.0001284920
O        -0.0000487932        0.0003250987       -0.0005312941
O         0.0002029174       -0.0001186291       -0.0002809707
O         0.0001191886       -0.0000446967        0.0000453111
     192
 i =        7, E =     -5782.8516866877
Ti         0.0005009051        0.0000392588        0.0001472952
Ti        -0.0001227528        0.0003788525       -0.0001483224
Ti        -0.0001102580       -0.0001680264        0.0028895726
Ti        -0.0002028446       -0.0002647263       -0.0025350621
Ti         0.0000321374        0.0005370990       -0.0000936507
Ti         0.0001161753       -0.0005272101        0.0000697024
Ti         0.0001554678        0.0007352294        0.0023130189
Ti         0.0001618263        0.0004137122       -0.0025443496
Ti         0.0001231217        0.0003098686       -0.0024549098
Ti         0.0003259714        0.0004946638        0.0028431751
Ti         0.0001273430       -0.0003161844       -0.0001699004
Ti        -0.0004268249        0.0006157863        0.0000731133
Ti         0.0002301331        0.0005521858        0.0000821528
Ti        -0.0000054262       -0.0003684359       -0.0000604420
Ti         0.0000779216        0.0005033256       -0.0031660778
Ti         0.0003249238        0.0006034165        0.0021015814
Ti         0.0000762009       -0.0002552875       -0.0000959201
Ti         0.0002200829       -0.0001470019       -0.0000594864
Ti         0.0003300419        0.0006030317        0.0021370748
Ti         0.0002263011        0.0002547798       -0.0030402645
Ti         0.0003883071       -0.0009198119        0.0002125617
Ti        -0.0002245861        0.0004500440       -0.0001037856
Ti        -0.0002893581       -0.0003301422        0.0023461074
Ti        -0.0002534121       -0.0001868700       -0.0024145953
Ti        -0.0001687650       -0.0004176898       -0.0020715776
Ti        -0.0001825360       -0.0004213574        0.0030150574
Ti        -0.0001122518        0.0003406770       -0.0002298285
Ti        -0.0001002445       -0.0001891733        0.0004330029
Ti         0.0003966368       -0.0002336421        0.0002842725
Ti        -0.0002876159        0.0003052130       -0.0001541743
Ti        -0.0002225810       -0.0003070718        0.0022750569
Ti        -0.0001900447       -0.0003530551       -0.0019698350
Ti        -0.0003503342       -0.0003538102       -0.0020272706
Ti        -0.0001259073       -0.0003570200        0.0026602665
Ti        -0.0001500198        0.0003374544       -0.0001567737
Ti        -0.0002198982       -0.0007777333        0.0003939825
Ti        -0.0003592370       -0.0004936711        0.0029943404
Ti        -0.0001527540       -0.0002903271       -0.0017805755
Ti         0.0006118316       -0.0006756111        0.0002073836
Ti        -0.0002117300        0.0004219588       -0.0002419617
Ti        -0.0001161545        0.0003038220       -0.0001472619
Ti         0.0000254872       -0.0001143321        0.0002520126
Ti        -0.0002941588       -0.0003995251       -0.0026921970
Ti        -0.0002248137       -0.0003724914        0.0022298137
Ti         0.0001439722       -0.0000001864        0.0000073994
Ti         0.0000437518       -0.0003244061       -0.0002448479
Ti         0.0002305425        0.0005080641        0.0016911674
Ti         0.0000519276        0.0002310522       -0.0027118904
Ti         0.0000087455        0.0001536825       -0.0025157854
Ti         0.0002198282        0.0004847165        0.0020558693
Ti         0.0001331700       -0.0003042671       -0.0001492819
Ti        -0.0004113956        0.0000589577        0.0001100709
Ti         0.0002389030        0.0005252233        0.0023088988
Ti         0.0001727800        0.0001425966       -0.0020965750
Ti         0.0000655925       -0.0002978036       -0.0000958888
Ti        -0.0003262437       -0.0001683143        0.0001006252
Ti         0.0001526462        0.0002904976       -0.0022753313
Ti         0.0002634427        0.0004749140        0.0020129832
Ti        -0.0002404681        0.0004285060        0.0000354879
Ti         0.0001530298       -0.0004140113       -0.0001755606
Ti         0.0000034511       -0.0006506274        0.0002537160
Ti        -0.0000430502        0.0004034255       -0.0002474047
Ti        -0.0001494336       -0.0002992702        0.0022278164
Ti        -0.0002198989       -0.0004271441       -0.0018663536
O        -0.0001356963       -0.0000622143       -0.0010274679
O        -0.0001344963       -0.0000353314        0.0004740770
O         0.0002442407       -0.0000992950       -0.0008273105
O        -0.0001756574       -0.0001552220        0.0010897952
O         0.0000307123        0.0001006936        0.0009130570
O         0.0000836964       -0.0000468608       -0.0015536793
O        -0.0002158388       -0.0000179918       -0.0003699606
O         0.0000547751        0.0000580711        0.0009312653
O        -0.0000901327       -0.0003768037       -0.0007881537
O        -0.0002332859        0.0000621759        0.0004018569
O        -0.0000724869       -0.0001116677       -0.0006354309
O        -0.0002159063       -0.0001075970        0.0009976588
O         0.0001130308       -0.0002285931        0.0010975899
O         0.0001319924       -0.0001818341       -0.0014292056
O         0.0000503607        0.0000364787       -0.0001606000
O         0.0000266062        0.0000506792        0.0008776635
O        -0.0000661542        0.0000166002        0.0008202943
O        -0.0000075749        0.0000015227       -0.0003557692
O        -0.0001406576       -0.0001124115        0.0013795478
O        -0.0001609763       -0.0000922161       -0.0006698822
O        -0.0001594765        0.0000861484        0.0002519381
O        -0.0000777693       -0.0000152573       -0.0008485821
O         0.0000606755        0.0000507083       -0.0010459479
O         0.0001005217       -0.0000994094        0.0011702545
O        -0.0001334338       -0.0000061935       -0.0010253139
O        -0.0001295901       -0.0000028538        0.0004205396
O         0.0000694181       -0.0000745054       -0.0007591578
O         0.0003942750       -0.0000953004        0.0009731697
O         0.0000724996        0.0000742188        0.0009277849
O         0.0000772942        0.0005548203       -0.0015340047
O         0.0000313361       -0.0000326722       -0.0002291430
O         0.0000891013        0.0000736628        0.0007812143
O        -0.0001023077       -0.0002330770       -0.0007230323
O        -0.0001505628        0.0000181973        0.0003632854
O        -0.0000450833       -0.0000735240       -0.0005689920
O        -0.0004783165        0.0000939965        0.0013065645
O         0.0001708845       -0.0001304292        0.0011921484
O         0.0000497270       -0.0002304071       -0.0011165944
O        -0.0000084721        0.0000531955       -0.0003233258
O        -0.0000497845        0.0001425211        0.0009273972
O         0.0002216787       -0.0003910167       -0.0012460013
O         0.0001061591       -0.0001604162        0.0009571366
O        -0.0001220827        0.0000636954        0.0003874033
O        -0.0000339733       -0.0001842875       -0.0008433505
O        -0.0003117939       -0.0001375307        0.0010592860
O        -0.0000162177       -0.0000724337       -0.0008229313
O         0.0000457530        0.0000060103        0.0007078123
O        -0.0001348267        0.0000776143       -0.0004718740
O        -0.0001343316       -0.0000794345       -0.0008992075
O        -0.0000480945       -0.0001307155        0.0005559339
O         0.0001502124       -0.0000130612       -0.0005818325
O         0.0000170673        0.0000368577        0.0007646322
O         0.0000983525        0.0000317834        0.0008704425
O         0.0000090882        0.0001844316       -0.0013781911
O        -0.0000599941       -0.0000004788       -0.0002004079
O         0.0000810445        0.0001516774        0.0008278875
O         0.0002160187        0.0001717530       -0.0016444588
O         0.0000750215        0.0000699192        0.0007387217
O        -0.0000103368        0.0001445805        0.0007984917
O        -0.0000961996       -0.0000159380       -0.0003234864
O        -0.0000749069       -0.0000620961        0.0004942047
O        -0.0000834276       -0.0001562111       -0.0009838415
O         0.0001780140        0.0000710212        0.0011817632
O         0.0001351401       -0.0000086190       -0.0006885519
O        -0.0000532876       -0.0000155966        0.0003195613
O        -0.0001149899        0.0001254861       -0.0010836593
O         0.0001396535       -0.0001334916        0.0008671769
O         0.0001322731       -0.0000547881       -0.0008676362
O         0.0001622124        0.0003099120       -0.0012219526
O         0.0000670460        0.0000944572        0.0007233753
O        -0.0000206552        0.0000516607        0.0006526111
O        -0.0000824192        0.0000365249       -0.0004651044
O         0.0001202117        0.0001726476        0.0009981894
O         0.0000418999        0.0002664837       -0.0011352040
O        -0.0000829552        0.0000392643       -0.0002459529
O         0.0000497505        0.0000731320        0.0006695618
O        -0.0001563650        0.0000740219       -0.0008323452
O        -0.0000661741        0.0000256203        0.0003610403
O         0.0001576194       -0.0000752104       -0.0008442971
O         0.0000293775       -0.0000840275        0.0006991214
O        -0.0000701490       -0.0001259193       -0.0007036885
O        -0.0001184680        0.0002006454        0.0003708346
O        -0.0001213971       -0.0000603493       -0.0005159961
O         0.0001361236        0.0000483966        0.0011194952
O         0.0001386646       -0.0001557588        0.0011485655
O         0.0000366115        0.0000978569       -0.0009969649
O         0.0000486948        0.0000512804       -0.0001856303
O         0.0000473941        0.0000877388        0.0007724850
O         0.0001959543        0.0002259112       -0.0012132184
O         0.0000760651       -0.0000915512        0.0009366495
O        -0.0001215433        0.0001167919        0.0002975337
O        -0.0000494410       -0.0001578018       -0.0008587810
O        -0.0000288318       -0.0001178563        0.0009364078
O        -0.0001719317       -0.0000598100       -0.0006691432
O         0.0000068335        0.0000144095        0.0006956282
O         0.0001875606        0.0000754163       -0.0002327795
O        -0.0001425670        0.0000414203       -0.0008866068
O        -0.0000491678       -0.0001277947        0.0004971303
O         0.0001926432       -0.0000829008       -0.0008319925
O        -0.0000635149        0.0000815681        0.0009210135
O         0.0000941099        0.0001462830        0.0008498477
O         0.0001244237        0.0000332311       -0.0013482876
O        -0.0001627597        0.0000442761       -0.0004577165
O         0.0000484982        0.0000949766        0.0006698394
O        -0.0000651190       -0.0002263058       -0.0006577901
O        -0.0001218191        0.0000226536        0.0004641379
O        -0.0001277746       -0.0000748365       -0.0005832494
O        -0.0002215067        0.0000136063        0.0008554979
O         0.0001131325       -0.0001636251        0.0009754022
O         0.0001375877       -0.0001533209       -0.0011015795
O         0.0000296110        0.0000724637       -0.0002358811
O         0.0000114295        0.0000004696        0.0006300507
O        -0.0000569976        0.0000227729        0.0006445622
O         0.0000431501        0.0000872645       -0.0003406211
O        -0.0001085790        0.0000447763        0.0011031023
O        -0.0000365031       -0.0000943300       -0.0006532249
O        -0.0001173260        0.0001030455        0.0002703497
O        -0.0000859839       -0.0001207306       -0.0006524810
O         0.0000820185       -0.0000151985       -0.0008742090
O         0.0001228693       -0.0001657295        0.0010423478
O        -0.0001206668       -0.0000137824       -0.0008363991
O        -0.0000447626        0.0000599420        0.0004262768
O         0.0000566017       -0.0000525103       -0.0007124678
O         0.0002649576        0.0000369489        0.0007739962
O         0.0000793169        0.0000851064        0.0007864160
O         0.0001097504        0.0003917501       -0.0011963955
O        -0.0000353592        0.0000276267       -0.0002232908
O         0.0000897483        0.0000761346        0.0006210619
     192
 i =        8, E =     -5781.4480557781
Ti         0.0004628173       -0.0152852548       -0.0549859855
Ti         0.0193240632       -0.0163739768        0.0287633720
Ti         0.0170300253        0.0195897119       -0.1567574070
Ti         0.0058855210        0.0275037796        0.1353006605
Ti         0.0080852064       -0.0150981838       -0.0310578099
Ti        -0.0102390977        0.0285623350        0.0195834215
Ti        -0.0195873192       -0.0230236277       -0.1188254443
Ti         0.0001244566       -0.0203124822        0.1769180853
Ti        -0.0010581452       -0.0176506844        0.1705468198
Ti        -0.0162557000       -0.0212594187       -0.1519297591
Ti        -0.0030925326        0.0319753595        0.0184378281
Ti        -0.0018269820       -0.0073125351       -0.0256425243
Ti         0.0066419655       -0.0049356615       -0.0305273687
Ti        -0.0137559181        0.0390067043        0.0150900752
Ti        -0.0047696846       -0.0273780653        0.2260798393
Ti        -0.0140739664       -0.0171745619       -0.1101093560
Ti        -0.0020128577        0.0249426816        0.0269310155
Ti        -0.0039173862        0.0128564887       -0.0323626608
Ti        -0.0162923147       -0.0185833311       -0.1065363438
Ti        -0.0066856038       -0.0213525448        0.2192716683
Ti        -0.0030733465        0.0142249088       -0.0612453647
Ti         0.0251572259       -0.0466163282        0.0253504044
Ti         0.0125582796        0.0270081085       -0.1520789494
Ti         0.0030070802        0.0248681633        0.1364817050
Ti         0.0083488534        0.0225283707        0.1173671852
Ti         0.0255140275        0.0186036381       -0.1727373210
Ti         0.0010974270       -0.0158588527        0.0285966851
Ti        -0.0027395860        0.0261688098       -0.0639230849
Ti        -0.0010132022        0.0274223074       -0.0565095087
Ti         0.0174507670       -0.0340236857        0.0285954827
Ti         0.0116124205        0.0250148322       -0.1533171973
Ti         0.0104014502        0.0199075861        0.1193032270
Ti         0.0048031109        0.0347804609        0.1227735990
Ti         0.0179123419        0.0170693496       -0.1669058777
Ti         0.0173114820       -0.0172952433        0.0220171434
Ti        -0.0051014676        0.0029574493       -0.0737848485
Ti         0.0229415065        0.0216625555       -0.1917420767
Ti         0.0088819656        0.0295632439        0.1140972845
Ti        -0.0044875383       -0.0013658816       -0.0539276463
Ti         0.0084469714       -0.0224688241        0.0314183445
Ti         0.0240787581       -0.0297296636        0.0256255374
Ti        -0.0133897329        0.0203045111       -0.0578675690
Ti         0.0034779672        0.0264853261        0.1650737212
Ti         0.0294766311        0.0260709131       -0.1510285094
Ti         0.0127016154       -0.0256179882       -0.0197727603
Ti        -0.0169919703        0.0099435393        0.0318684901
Ti        -0.0262094271       -0.0170319505       -0.0962665510
Ti        -0.0030458868       -0.0212315008        0.1924242982
Ti        -0.0055696734       -0.0198160614        0.1774802648
Ti        -0.0063850599       -0.0289569514       -0.1115043167
Ti        -0.0213511688        0.0257390701        0.0263223286
Ti         0.0118821745       -0.0291053156       -0.0305846793
Ti        -0.0253133877       -0.0269151896       -0.1240723684
Ti        -0.0035457699       -0.0200367851        0.1517434882
Ti        -0.0031497314        0.0091132125        0.0171464409
Ti         0.0001502853       -0.0211397574       -0.0237632077
Ti        -0.0095513870       -0.0163581678        0.1674991945
Ti        -0.0284519364       -0.0240318398       -0.1114475054
Ti         0.0093902450       -0.0290331531       -0.0261487982
Ti        -0.0271855016        0.0220285198        0.0344747534
Ti        -0.0085475685        0.0265689280       -0.0476468673
Ti        -0.0037136102       -0.0385293599        0.0277299941
Ti         0.0052294387        0.0121787123       -0.1493372040
Ti         0.0034078189        0.0224030233        0.1120888140
O         0.0018702855        0.0007225121        0.0894477120
O         0.0012474881       -0.0087350700       -0.0366140386
O        -0.0158900582        0.0000267443        0.0838536098
O        -0.0083182921        0.0025150521       -0.0040891547
O         0.0027183002       -0.0066864245       -0.0835308155
O        -0.0018719757       -0.0092171445        0.0126138211
O         0.0031301074        0.0024512615        0.0201890888
O        -0.0035693313        0.0037029596       -0.0511046728
O         0.0024065683        0.0012692528        0.0727421365
O         0.0039171560       -0.0113463177       -0.0391909321
O         0.0138211516        0.0013656432        0.0485611169
O         0.0017483993       -0.0022772186       -0.0022770985
O        -0.0013341244        0.0082565568       -0.1100878128
O        -0.0010539444        0.0258848750        0.0268941859
O        -0.0071100333       -0.0010360843        0.0194783986
O         0.0120364482       -0.0012186157       -0.0593849280
O        -0.0002291364        0.0005593517       -0.0544128532
O         0.0019104177       -0.0001681952        0.0267216137
O         0.0128152008        0.0025351954       -0.0046652092
O         0.0021393664        0.0011856527        0.0452512221
O         0.0022428215       -0.0108175086       -0.0346528081
O         0.0013194300       -0.0009159811        0.0841349395