     192
 i =        1, E =     -5782.3758182233
Ti         0.0006648939        0.0006646843       -0.0000000838
Ti        -0.0007074109       -0.0007065537        0.0000011334
Ti         0.0006663437       -0.0007300505       -0.0005888326
Ti        -0.0007294577        0.0006678067        0.0005907662
Ti         0.0006698367       -0.0011890698        0.0002858815
Ti        -0.0007299622       -0.0007125074       -0.0005898886
Ti         0.0006926744       -0.0007115955        0.0000013108
Ti        -0.0002373111        0.0006737704        0.0004147621
Ti        -0.0006819584       -0.0011792576        0.0002972450
Ti         0.0006658343       -0.0007105086        0.0000018624
Ti        -0.0002410377       -0.0006648638        0.0001745936
Ti         0.0007138900        0.0006659509       -0.0005865465
Ti        -0.0011903792        0.0006705172       -0.0002842870
Ti        -0.0007104842       -0.0007281766        0.0005927561
Ti        -0.0007087848        0.0006659562       -0.0000024126
Ti        -0.0011779437       -0.0006863294       -0.0002965844
Ti        -0.0006665316       -0.0002376685       -0.0001732117
Ti         0.0006667923        0.0007130524        0.0005885285
Ti         0.0006739007       -0.0002365554       -0.0004126357
Ti        -0.0007125558        0.0006928726       -0.0000004756
Ti         0.0006727721        0.0002803747        0.0004143609
Ti        -0.0006857092        0.0011921240       -0.0003006774
Ti         0.0002853082       -0.0006689545       -0.0001729673
Ti         0.0012003367        0.0006693366        0.0002810502
Ti        -0.0006680500        0.0002845941        0.0001707512
Ti         0.0006706807        0.0012016576       -0.0002791797
Ti         0.0011924840       -0.0006823850        0.0003003065
Ti         0.0002819564        0.0006726590       -0.0004146601
Ti        -0.0011622805       -0.0011605888       -0.0000011306
Ti        -0.0007047982       -0.0007071626        0.0000025737
Ti         0.0006491008       -0.0002401158        0.0001713407
Ti        -0.0002404812        0.0006494352       -0.0001724878
Ti        -0.0007127590       -0.0011941884       -0.0002886014
Ti        -0.0011904630       -0.0007117284        0.0002878205
Ti        -0.0002410216       -0.0002417117       -0.0000016548
Ti         0.0006940934        0.0006927368       -0.0000001432
Ti         0.0007132444       -0.0007082837        0.0005898352
Ti        -0.0002423320       -0.0011507212        0.0001131299
Ti        -0.0011809569        0.0006649083        0.0002970409
Ti        -0.0007113104       -0.0002353795        0.0004137150
Ti        -0.0002377058       -0.0007122071       -0.0004153406
Ti         0.0006661862       -0.0011787799       -0.0002956398
Ti        -0.0007087565        0.0007157763       -0.0005925223
Ti        -0.0011497530       -0.0002420261       -0.0001151222
Ti        -0.0011513350        0.0002845688        0.0001162769
Ti        -0.0007090657        0.0012031802        0.0002822621
Ti         0.0002865997       -0.0002407575        0.0000023326
Ti         0.0011909805        0.0006681751       -0.0003021457
Ti        -0.0007125899        0.0002832084       -0.0004187053
Ti        -0.0011624697        0.0011734393        0.0000029474
Ti         0.0011609970       -0.0002405644        0.0001184399
Ti         0.0002835749        0.0006491497        0.0001702199
Ti         0.0006663937        0.0011886921        0.0003006323
Ti        -0.0002415671        0.0002864171       -0.0000012111
Ti        -0.0002402774        0.0011611462       -0.0001171153
Ti         0.0006490175        0.0002839936       -0.0001684225
Ti         0.0011715009       -0.0011606251       -0.0000041705
Ti         0.0002833331       -0.0007111879        0.0004175421
Ti         0.0002857743       -0.0011499470       -0.0001157455
Ti         0.0012028389       -0.0007111145       -0.0002816469
Ti         0.0002856344        0.0002850914        0.0000007694
Ti         0.0011737201        0.0011727876       -0.0000016744
Ti         0.0002897786        0.0011571016        0.0001211203
Ti         0.0011595014        0.0002865199       -0.0001222412
O        -0.0001355123        0.0000361097       -0.0001329643
O         0.0004208888        0.0002804674        0.0001260091
O         0.0000583529        0.0004552348        0.0002205137
O         0.0003007634       -0.0001271577       -0.0001967222
O         0.0004569363        0.0000530362       -0.0002204906
O        -0.0001267847        0.0003016161        0.0001990909
O         0.0002835519        0.0004243582       -0.0001275217
O         0.0000327394       -0.0001367416        0.0001332792
O        -0.0001206159       -0.0006415227       -0.0001717520
O         0.0004559426       -0.0000670758        0.0002239935
O        -0.0003032877        0.0004297780        0.0001348709
O        -0.0001358875       -0.0001150562       -0.0003401643
O         0.0003728087       -0.0006390572       -0.0001389917
O        -0.0001397565       -0.0000448341        0.0001292084
O        -0.0001370480        0.0003629752        0.0000376809
O        -0.0003196838       -0.0001256039        0.0001931567
O        -0.0006402092       -0.0001201407        0.0001692338
O        -0.0000711737        0.0004556658       -0.0002264232
O        -0.0000417670       -0.0001400670       -0.0001331970
O        -0.0006397556        0.0003741608        0.0001362545
O         0.0003565414       -0.0001370920       -0.0000371601
O        -0.0001260503       -0.0003162612       -0.0001916796
O        -0.0001176500       -0.0001377909        0.0003400317
O         0.0004325911       -0.0003071046       -0.0001343117
O        -0.0001156970        0.0001558399       -0.0003388116
O         0.0003760277        0.0006327688        0.0001450615
O         0.0001530315        0.0003629344       -0.0000352138
O         0.0006367304       -0.0001212415       -0.0001654690
O         0.0003651827        0.0001531839        0.0000351831
O        -0.0001199297        0.0006350765        0.0001645381
O         0.0006330176        0.0003768189       -0.0001451361
O         0.0001533912       -0.0001151552        0.0003369063
O        -0.0006173259        0.0000951447        0.0002865225
O         0.0001434236        0.0002989712       -0.0002009939
O         0.0001165018       -0.0006145172        0.0003061938
O         0.0002853072       -0.0004417550        0.0001206853
O         0.0001623267        0.0000319750        0.0001381596
O        -0.0006037823        0.0002944454       -0.0001933999
O         0.0003179679       -0.0006053730       -0.0002266027
O         0.0000596586       -0.0004782445       -0.0002133957
O        -0.0004449995        0.0002839511       -0.0001217596
O        -0.0006142973        0.0001138643       -0.0003046404
O        -0.0006042792        0.0003188560        0.0002282650
O        -0.0004785201        0.0000596211        0.0002116857
O         0.0002952622       -0.0006025899        0.0001942936
O         0.0000327642        0.0001646416       -0.0001416626
O         0.0000964175       -0.0006147455       -0.0002881252
O         0.0003006280        0.0001405570        0.0002034537
O        -0.0005925974       -0.0006147146        0.0002230974
O         0.0001568624       -0.0000443667       -0.0001324284
O        -0.0003348818       -0.0006061501        0.0002332387
O        -0.0001366909       -0.0003753498       -0.0000397614
O         0.0001363266       -0.0006408454        0.0001750729
O        -0.0006162252       -0.0001070268       -0.0002900129
O        -0.0001234033       -0.0006002880       -0.0001634385
O        -0.0003043130       -0.0004506261       -0.0001298251
O        -0.0004787477       -0.0000674790       -0.0002189700
O        -0.0006054078       -0.0005915704       -0.0003079333
O        -0.0006395080       -0.0003895196       -0.0001336646
O        -0.0001274138       -0.0006117994       -0.0003085335
O        -0.0006108407       -0.0001275090        0.0003060553
O        -0.0003888639       -0.0006393544        0.0001338628
O        -0.0000685405       -0.0004775403        0.0002186799
O        -0.0005896747       -0.0006048046        0.0003049833
O        -0.0006001567       -0.0001236018        0.0001638185
O        -0.0004444592       -0.0003024040        0.0001312403
O        -0.0001054443       -0.0006179846        0.0002892364
O        -0.0006437549        0.0001419345       -0.0001758361
O        -0.0003776386       -0.0001362037        0.0000392812
O        -0.0006070809       -0.0003403515       -0.0002321572
O        -0.0006142494       -0.0005913317       -0.0002221000
O        -0.0000470562        0.0001555165        0.0001350214
O         0.0001470208       -0.0003238385        0.0001970204
O        -0.0005797602       -0.0001299319       -0.0000497617
O        -0.0001363745        0.0001250675        0.0003408251
O        -0.0003138815       -0.0006010742       -0.0001993955
O        -0.0006004987       -0.0003099029        0.0002003372
O         0.0001286888       -0.0001376438       -0.0003408463
O        -0.0003213111        0.0001481644       -0.0001981443
O        -0.0001292393       -0.0005800866        0.0000497788
O        -0.0005787503        0.0001485577        0.0000525199
O         0.0001310566        0.0006372619       -0.0001664292
O         0.0001363543       -0.0006030063        0.0001640675
O         0.0006325788       -0.0003900314        0.0001413572
O         0.0001308363        0.0001524015        0.0003398092
O        -0.0005919719        0.0006055686       -0.0002289741
O         0.0005794131       -0.0006031902       -0.0003115422
O         0.0001544164       -0.0003780334        0.0000386928
O        -0.0003919160        0.0006322578       -0.0001429139
O        -0.0006028758        0.0001380318       -0.0001637235
O        -0.0006024171        0.0005827202        0.0003112693
O        -0.0003751018        0.0001544833       -0.0000391950
O         0.0006095287       -0.0005937399        0.0002284106
O         0.0001518705        0.0001348016       -0.0003405382
O         0.0001469523       -0.0005790344       -0.0000498980
O         0.0006358644        0.0001303226        0.0001672789
O         0.0006636433        0.0001186292        0.0003066676
O         0.0005600775        0.0002923873        0.0001901883
O         0.0000868392        0.0005734752        0.0002844744
O         0.0003150763        0.0006562243        0.0002282818
O         0.0005742262        0.0000877206       -0.0002839252
O         0.0006560271        0.0003196765       -0.0002302618
O         0.0002942189        0.0005577559       -0.0001907365
O         0.0001178371        0.0006632049       -0.0003044952
O         0.0006531437       -0.0005908167        0.0003061079
O         0.0005730559       -0.0000994446        0.0002888044
O        -0.0003153198        0.0005616011        0.0001978467
O        -0.0001230330        0.0006509726        0.0001612248
O         0.0005512201       -0.0006205236       -0.0002171871
O         0.0006631183       -0.0001299832       -0.0003069764
O        -0.0001288245        0.0005400443       -0.0000451525
O        -0.0003322075        0.0006559230       -0.0002312618
O        -0.0005881102        0.0006539862       -0.0003060482
O        -0.0001056275        0.0005727811       -0.0002887829
O        -0.0001248434        0.0006634447        0.0003074669
O        -0.0006218175        0.0005515507        0.0002167680
O         0.0005401414       -0.0001282362        0.0000435481
O         0.0006560079       -0.0003322375        0.0002321855
O         0.0006504403       -0.0001223432       -0.0001614152
O         0.0005622775       -0.0003150641       -0.0001975389
O         0.0006493990        0.0001401268        0.0001580808
O         0.0005523092        0.0006123719        0.0002235729
O         0.0001435404        0.0005435877        0.0000452300
O         0.0005810528        0.0006540827        0.0003089233
O         0.0005434777        0.0001424096       -0.0000443154
O         0.0006534842        0.0005818064       -0.0003101113
O         0.0006099803        0.0005536509       -0.0002226671
O         0.0001391569        0.0006498212       -0.0001586715
     192
 i =        2, E =     -5782.3763619571
Ti         0.0000612500        0.0000638102       -0.0000015919
Ti        -0.0005324387       -0.0005337439        0.0000000689
Ti         0.0000614051       -0.0005315382        0.0004977290
Ti        -0.0005347060        0.0000619469       -0.0004981880
Ti         0.0000657030       -0.0010683918        0.0000313962
Ti        -0.0005352203       -0.0000749251        0.0004885205
Ti         0.0005012786       -0.0005348959       -0.0000171519
Ti        -0.0006864754        0.0000607916       -0.0000677859
Ti        -0.0005326823       -0.0010658211       -0.0005265992
Ti         0.0000621618       -0.0000756365        0.0000093715
Ti        -0.0006783032       -0.0005409794       -0.0004430191
Ti         0.0005038341        0.0000622862        0.0005192795
Ti        -0.0010718954        0.0000653158       -0.0000288918
Ti        -0.0000762394       -0.0005338749       -0.0004858561
Ti        -0.0000761307        0.0000636169       -0.0000091143
Ti        -0.0010649286       -0.0005353067        0.0005294388
Ti        -0.0005428249       -0.0006798783        0.0004451697
Ti         0.0000624651        0.0005011062       -0.0005156203
Ti         0.0000608918       -0.0006875324        0.0000710022
Ti        -0.0005342640        0.0005019484        0.0000205612
Ti         0.0000599880        0.0007459424       -0.0000707958
Ti        -0.0005336184        0.0010464368        0.0005175648
Ti         0.0007352142       -0.0005416907        0.0004440963
Ti         0.0010548759        0.0000638921        0.0000188941
Ti        -0.0005431232        0.0007351910       -0.0004468747
Ti         0.0000648486        0.0010540044       -0.0000201174
Ti         0.0010481726       -0.0005343585       -0.0005173120
Ti         0.0007488537        0.0000607587        0.0000664306
Ti        -0.0010533736       -0.0010547868       -0.0000013452
Ti        -0.0000758029       -0.0000789537       -0.0000011529
Ti         0.0005105747       -0.0006781551       -0.0004620089
Ti        -0.0006791582        0.0005115190        0.0004596141
Ti        -0.0000804270       -0.0010752225       -0.0000418785
Ti        -0.0010743674       -0.0000774151        0.0000404050
Ti        -0.0006734394       -0.0006761623       -0.0000023015
Ti         0.0005030948        0.0005010424       -0.0000018176
Ti         0.0005017455       -0.0000741432       -0.0005060119
Ti        -0.0006701920       -0.0010601514       -0.0000666014
Ti        -0.0010659335        0.0005030025       -0.0005468715
Ti        -0.0000770207       -0.0006881605       -0.0000643049
Ti        -0.0006907701       -0.0000773144        0.0000616283
Ti         0.0005024475       -0.0010635819        0.0005444748
Ti        -0.0000760062        0.0005039014        0.0005057232
Ti        -0.0010592113       -0.0006721238        0.0000633171
Ti        -0.0010582475        0.0007288591       -0.0000620330
Ti        -0.0000805909        0.0010536038        0.0000282420
Ti         0.0007308065       -0.0006704867        0.0000025572
Ti         0.0010485823        0.0005030366        0.0005362193
Ti        -0.0000780485        0.0007483423        0.0000605655
Ti        -0.0010571336        0.0010388206        0.0000116283
Ti         0.0010422751       -0.0006727885       -0.0000496112
Ti         0.0007353100        0.0005093157       -0.0004613893
Ti         0.0005025404        0.0010492334       -0.0005346010
Ti        -0.0006713151        0.0007321386        0.0000021286
Ti        -0.0006759323        0.0010409700        0.0000552312
Ti         0.0005111195        0.0007362893        0.0004632500
Ti         0.0010381334       -0.0010538420       -0.0000100184
Ti         0.0007477466       -0.0000778985       -0.0000603612
Ti         0.0007296595       -0.0010574220        0.0000635355
Ti         0.0010545575       -0.0000836399       -0.0000276217
Ti         0.0007315727        0.0007311088       -0.0000008782
Ti         0.0010338446        0.0010358219       -0.0000018667
Ti         0.0007286237        0.0010415032       -0.0000501630
Ti         0.0010432976        0.0007292186        0.0000492417
O         0.0000265493        0.0000253947       -0.0002653223
O         0.0003067806        0.0000002704        0.0003933083
O         0.0000049990        0.0003035046        0.0000908550
O         0.0000134855        0.0000249807        0.0000562655
O         0.0003032883        0.0000024944       -0.0000915567
O         0.0000253551        0.0000145447       -0.0000554231
O         0.0000047240        0.0003072679       -0.0003945034
O         0.0000268005        0.0000263810        0.0002655084
O         0.0000189994        0.0002313167       -0.0006245753
O         0.0003000193        0.0000211756        0.0001020288
O         0.0000029480        0.0003081954        0.0004216579
O         0.0000947855        0.0000097816       -0.0005618255
O         0.0003118396        0.0002103764        0.0002865041
O         0.0000251443       -0.0000006465        0.0002552786
O         0.0000882573        0.0002998638        0.0002319586
O        -0.0000037568        0.0000272878       -0.0000827172
O         0.0002360843        0.0000193960        0.0006234790
O         0.0000211938        0.0003003303       -0.0001049365
O         0.0000024825        0.0000253794       -0.0002555185
O         0.0002079478        0.0003105169       -0.0002872799
O         0.0002990394        0.0000940766       -0.0002338879
O         0.0000269388       -0.0000049465        0.0000830471
O         0.0000095036        0.0000895125        0.0005611051
O         0.0003080456        0.0000042093       -0.0004212654
O         0.0000110193       -0.0001017462       -0.0005663801
O         0.0003095376       -0.0002291057       -0.0002726629
O        -0.0001000809        0.0003008966       -0.0002371271
O        -0.0002549838        0.0000184897       -0.0006119432
O         0.0003025055       -0.0000994010        0.0002369875
O         0.0000190863       -0.0002459616        0.0006111983
O        -0.0002240878        0.0003105769        0.0002726844
O        -0.0001067069        0.0000111504        0.0005653524
O         0.0005425393       -0.0000302637        0.0001476999
O        -0.0000122933        0.0000178699        0.0000549838
O        -0.0000292389       -0.0005571035        0.0002851736
O         0.0000066497       -0.0002850097        0.0003857402
O        -0.0000102081        0.0000281861        0.0002691890
O         0.0005246028       -0.0000241134       -0.0004231754
O         0.0000170848       -0.0005409236       -0.0005687144
O         0.0000083128       -0.0002787761       -0.0000824542
O        -0.0002852600        0.0000019103       -0.0003852057
O        -0.0005572044       -0.0000261716       -0.0002838757
O        -0.0005404560        0.0000232711        0.0005691684
O        -0.0002780251        0.0000052644        0.0000798020
O        -0.0000204521        0.0005250030        0.0004233343
O         0.0000260067       -0.0000099555       -0.0002686938
O        -0.0000271769        0.0005444124       -0.0001478098
O         0.0000171404       -0.0000144581       -0.0000541997
O         0.0004935222        0.0001874864       -0.0003040320
O        -0.0000120170       -0.0000038251       -0.0002552075
O        -0.0000101132       -0.0005403190        0.0005974610
O         0.0000898868       -0.0002811752       -0.0002397055
O        -0.0000024607        0.0002315812        0.0006273383
O         0.0005408884        0.0000548621       -0.0001592569
O         0.0001091074       -0.0005216126        0.0000854998
O        -0.0000008840       -0.0002848911       -0.0004126760
O        -0.0002769194        0.0000239088       -0.0000923460
O        -0.0005340108        0.0002330429        0.0001295534
O         0.0002104643       -0.0002905150        0.0002944328
O         0.0000549550       -0.0005570663       -0.0002950215
O        -0.0005563631        0.0000476190        0.0002945467
O        -0.0002892698        0.0002142406       -0.0002949780
O         0.0000180489       -0.0002764007        0.0000932664
O         0.0002383035       -0.0005338553       -0.0001299306
O        -0.0005218851        0.0001042801       -0.0000854319
O        -0.0002834111        0.0000009239        0.0004123267
O         0.0000514433        0.0005376116        0.0001590589
O         0.0002358362       -0.0000006598       -0.0006278726
O        -0.0002824602        0.0000926283        0.0002395150
O        -0.0005405927       -0.0000141841       -0.0005979848
O         0.0001804291        0.0004955839        0.0003028524
O        -0.0000015774       -0.0000123647        0.0002552556
O        -0.0000089536       -0.0000042637       -0.0000796577
O         0.0004730521        0.0000915983        0.0002791918
O         0.0000927660        0.0000017427        0.0005620211
O         0.0000249972        0.0005304266       -0.0004519288
O         0.0005302260        0.0000242095        0.0004520117
O         0.0000032487        0.0000924379       -0.0005618141
O        -0.0000060727       -0.0000083595        0.0000803490
O         0.0000861287        0.0004729055       -0.0002781404
O         0.0004778256       -0.0000974121       -0.0002820053
O        -0.0000051296       -0.0002519704       -0.0006122921
O        -0.0001238527       -0.0005221539       -0.0000902362
O        -0.0002271769       -0.0002896916       -0.0002795719
O         0.0000052158       -0.0001037661        0.0005666852
O         0.0004940487       -0.0002016185        0.0002866183
O        -0.0002538732       -0.0005341147        0.0001144526
O        -0.0000975159       -0.0002824725        0.0002449913
O        -0.0002919610       -0.0002316967        0.0002793007
O        -0.0005219321       -0.0001157632        0.0000892161
O        -0.0005335587       -0.0002496961       -0.0001149588
O        -0.0002813655       -0.0001010025       -0.0002453642
O        -0.0001965758        0.0004927238       -0.0002861322
O        -0.0001050448        0.0000070475       -0.0005678515
O        -0.0000941958        0.0004782129        0.0002833961
O        -0.0002511854       -0.0000068212        0.0006113467
O         0.0005493390       -0.0000263473        0.0002882213
O        -0.0005481790       -0.0000253342        0.0004128955
O        -0.0000300177       -0.0005622519        0.0001373991
O         0.0000140668        0.0005320313        0.0005709609
O        -0.0005617699       -0.0000280776       -0.0001372920
O         0.0005316276        0.0000192698       -0.0005702572
O        -0.0000234057       -0.0005493247       -0.0004134602
O        -0.0000291185        0.0005497776       -0.0002858683
O         0.0005245996        0.0002304422       -0.0001326675
O        -0.0005644772        0.0000538479        0.0001493911
O         0.0000274003       -0.0005453573        0.0004432648
O         0.0001083753        0.0005101784       -0.0000915384
O        -0.0005110957        0.0001867645        0.0003107008
O         0.0005503418        0.0000533616       -0.0002955550
O         0.0000926320       -0.0004920770        0.0002846868
O        -0.0000070999        0.0005321290       -0.0005966617
O         0.0002350421        0.0005239871        0.0001323584
O         0.0000497691       -0.0005660603       -0.0001488843
O         0.0000585187        0.0005498929        0.0002981000
O         0.0001846491       -0.0005096507       -0.0003121642
O        -0.0004920860        0.0000924315       -0.0002859843
O         0.0005321461       -0.0000090651        0.0005969981
O         0.0005104499        0.0001039911        0.0000901982
O        -0.0005444665        0.0000346053       -0.0004423933
O         0.0005110699       -0.0001180082       -0.0000977501
O        -0.0005148114       -0.0002047980       -0.0002951391
O        -0.0000935779       -0.0004884593       -0.0002885623
O        -0.0002508502        0.0005248720       -0.0001171670
O        -0.0004874072       -0.0001020596        0.0002889829
O         0.0005247401       -0.0002452554        0.0001167386
O        -0.0002018857       -0.0005141797        0.0002946046
O        -0.0001220360        0.0005115206        0.0000972130
     192
 i =        3, E =     -5782.3766690841
Ti         0.0000321984        0.0000339012       -0.0000010011
Ti        -0.0000757023       -0.0000766741        0.0000002244
Ti         0.0000247994       -0.0000662700        0.0005588196
Ti        -0.0000691247        0.0000253761       -0.0005600479
Ti         0.0000242255       -0.0001039935        0.0002389873
Ti        -0.0000685101       -0.0000153835        0.0005501195
Ti         0.0000719279       -0.0000768513       -0.0000282382
Ti        -0.0003904851        0.0000121153        0.0003396496
Ti        -0.0000813249       -0.0001144496       -0.0007875954
Ti         0.0000326652       -0.0000239366        0.0000085021
Ti        -0.0003910323       -0.0000999113       -0.0009017541
Ti         0.0000653265        0.0000256303        0.0005894646
Ti        -0.0001061073        0.0000239248       -0.0002370697
Ti        -0.0000166564       -0.0000676603       -0.0005484136
Ti        -0.0000245986        0.0000335999       -0.0000084088
Ti        -0.0001144310       -0.0000826617        0.0007891065
Ti        -0.0001007557       -0.0003926199        0.0009037309
Ti         0.0000256473        0.0000631583       -0.0005868203
Ti         0.0000120546       -0.0003916216       -0.0003382878
Ti        -0.0000768883        0.0000718901        0.0000294571
Ti         0.0000115910        0.0004052412        0.0003342241
Ti        -0.0000812320        0.0000911290        0.0007645031
Ti         0.0004033203       -0.0000989828        0.0008975891
Ti         0.0000835612        0.0000234315        0.0002146197
Ti        -0.0000998596        0.0004032736       -0.0008993178
Ti         0.0000243293        0.0000825901       -0.0002158443
Ti         0.0000920767       -0.0000824340       -0.0007641201
Ti         0.0004075354        0.0000123397       -0.0003372106
Ti        -0.0001154186       -0.0001163014       -0.0000004924
Ti        -0.0000249643       -0.0000265120       -0.0000010133
Ti         0.0000945377       -0.0003913482       -0.0009289866
Ti        -0.0003915030        0.0000951811        0.0009282553
Ti        -0.0000152016       -0.0001072433       -0.0002496662
Ti        -0.0001068451       -0.0000134625        0.0002487539
Ti        -0.0004068606       -0.0004080648       -0.0000012440
Ti         0.0000718857        0.0000712633       -0.0000007112
Ti         0.0000641355       -0.0000158043       -0.0005781945
Ti        -0.0003923249       -0.0001345700        0.0001460352
Ti        -0.0001137456        0.0000768049       -0.0008165910
Ti        -0.0000052303       -0.0003910544        0.0003470386
Ti        -0.0003929363       -0.0000052860       -0.0003479839
Ti         0.0000763413       -0.0001136396        0.0008153722
Ti        -0.0000163442        0.0000652305        0.0005773394
Ti        -0.0001337549       -0.0003938843       -0.0001479885
Ti        -0.0001321256        0.0004050488        0.0001419652
Ti        -0.0000165506        0.0000821072        0.0002242618
Ti         0.0004182742       -0.0004048302       -0.0000064180
Ti         0.0000923952        0.0000776709        0.0007938066
Ti        -0.0000059329        0.0004053211       -0.0003445650
Ti        -0.0001165916        0.0000964729        0.0000246496
Ti         0.0001151027       -0.0003929097        0.0001731494
Ti         0.0004037146        0.0000925478       -0.0009233444
Ti         0.0000772704        0.0000932950       -0.0007928956
Ti        -0.0004053078        0.0004190364        0.0000091784
Ti        -0.0003951375        0.0001137573       -0.0001703089
Ti         0.0000933933        0.0004045965        0.0009248650
Ti         0.0000957225       -0.0001155260       -0.0000227221
Ti         0.0004051736       -0.0000067770        0.0003440005
Ti         0.0004056233       -0.0001322607       -0.0001409498
Ti         0.0000834591       -0.0000183153       -0.0002232483
Ti         0.0004190991        0.0004188817       -0.0000008988
Ti         0.0000936497        0.0000946381       -0.0000004655
Ti         0.0004027178        0.0001141843        0.0001647882
Ti         0.0001145350        0.0004045064       -0.0001655964
O        -0.0000924232       -0.0002024178       -0.0000716039
O         0.0000195321        0.0000325868        0.0003961259
O        -0.0002118007        0.0000197089       -0.0001560238
O         0.0000591088       -0.0000936534        0.0004643603
O         0.0000195470       -0.0002124254        0.0001552844
O        -0.0000934354        0.0000583216       -0.0004647987
O         0.0000340572        0.0000189074       -0.0003962082
O        -0.0002012084       -0.0000924501        0.0000720744
O        -0.0000856893        0.0003205704       -0.0004068810
O         0.0000201335        0.0002384748       -0.0001564804
O        -0.0000221543        0.0000175494        0.0004122386
O         0.0002645908       -0.0000825461       -0.0003572335
O         0.0000365568        0.0003024847        0.0005091530
O        -0.0000919326        0.0002278541        0.0000739807
O         0.0002521539        0.0000449236        0.0004755083
O        -0.0000467264       -0.0000942861       -0.0004807995
O         0.0003230827       -0.0000861299        0.0004071196
O         0.0002382451        0.0000200996        0.0001558693
O         0.0002300042       -0.0000916806       -0.0000736118
O         0.0003010632        0.0000358469       -0.0005090569
O         0.0000458243        0.0002565615       -0.0004768248
O        -0.0000946039       -0.0000483815        0.0004809601