     192
 i =        1, E =     -5782.3758182233
Ti        -0.0006940521       -0.0007028100        0.0000017110
Ti         1.8927340153        1.8927438809        4.8075081731
Ti        -0.0006641619        1.8927388640        2.4026337052
Ti         1.8927494256       -0.0006656205        7.2123789264
Ti        -0.0006430505        3.7811909572        0.0016996424
Ti         1.8927645996       13.2394788662        4.8063735121
Ti        11.3461074396        1.8927334246        2.4037186856
Ti         5.6738683604       -0.0006317847        7.2133684860
Ti         1.8927022062        3.7812311008        7.2106888171
Ti        -0.0006890820       13.2394780261        2.4037780189
Ti         5.6738823978        1.8927104566        4.8065220142
Ti        11.3460727563       -0.0006761535       -0.0010965795
Ti         3.7811960820       -0.0006407459       -0.0016947103
Ti        13.2394651403        1.8927560759        4.8086394131
Ti        13.2394891353       -0.0006920058        7.2112571376
Ti         3.7812278569        1.8927157128        2.4043314499
Ti         1.8927036061        5.6738815880        4.8084896699
Ti        -0.0006751666       11.3460844777        0.0010869508
Ti        -0.0006361315        5.6738667888        2.4016397053
Ti         1.8927398317       11.3461040493        7.2112954164
Ti        -0.0006315221        7.5650747728        0.0020968231
Ti         1.8927348783        9.4576938356        4.8080569414
Ti         7.5650788190        1.8927014969        2.4047293745
Ti         9.4577033879       -0.0006434118        7.2129383332
Ti         1.8927020766        7.5650758690        7.2102985061
Ti        -0.0006374145        9.4576981149        2.4020831589
Ti         9.4576868957        1.8927293050        4.8069653920
Ti         7.5650609951       -0.0006320379       -0.0020919147
Ti         3.7812240568        3.7812272215        0.0000019309
Ti        13.2394901852       13.2395026741        4.8075110456
Ti        11.3461494717        5.6738756119        2.4027421268
Ti         5.6738792348       11.3461402689        7.2122796543
Ti        13.2394399300        3.7812157673        7.2095642341
Ti         3.7812113168       13.2394325588        2.4054650246
Ti         5.6738835204        5.6738890891        4.8075137733
Ti        11.3460975485       11.3461047013        0.0000008172
Ti        11.3460910082       13.2394566054        2.4048654706
Ti         5.6738677002        3.7812288987        7.2116867336
Ti         3.7812235435       11.3461369718       -0.0006025131
Ti        13.2394357528        5.6738773549        4.8096342175
Ti         5.6738910806       13.2394446465        4.8053970553
Ti        11.3461243502        3.7812158548        0.0006005212
Ti        13.2394625629       11.3460754006        7.2101616724
Ti         3.7812262592        5.6738723378        2.4033436308
Ti         3.7812266584        7.5650786692        0.0004020340
Ti        13.2394599729        9.4577142120        4.8091930811
Ti         7.5650802188        5.6738689579        2.4037362983
Ti         9.4576839427       11.3461228753        7.2118400710
Ti        13.2394330504        7.5650714130        7.2091683015
Ti         3.7812311448        9.4576691167        2.4037819676
Ti         9.4576900730        5.6738942222        4.8079512662
Ti         7.5650745495       11.3461473195       -0.0009979834
Ti        11.3461362413        9.4576826993        2.4031782436
Ti         5.6738697423        7.5650749638        7.2112737914
Ti         5.6738970970        9.4576980704        4.8070618137
Ti        11.3461405351        7.5650713366        0.0009912317
Ti         9.4576761270        3.7812249557        7.2112368088
Ti         7.5650751278       13.2394299803        2.4058555194
Ti         7.5650676286        3.7812181549       -0.0004080653
Ti         9.4577122748       13.2394646409        4.8058267672
Ti         7.5650713894        7.5650741168        0.0000013238
Ti         9.4577014893        9.4577011608        4.8075119618
Ti         7.5650722315        9.4576837212        2.4041786335
Ti         9.4576780103        7.5650701170        7.2108435787
O         0.0012952459        0.0026855696        1.9932300404
O         1.8845363157        1.8897906681        6.7989301271
O         0.0026608520        1.8843264367        4.3961658517
O         1.8897230982        0.0012967897        9.2034404495
O         1.8843202253        0.0026750796        5.2188540200
O         0.0012930815        1.8897200763        0.4115721540
O         1.8897805242        1.8845195030        2.8160946761
O         0.0026919160        0.0013012737        7.6217909284
O         0.0012849688        3.7816856368        1.9931805513
O         1.8843345190       13.2360895218        6.7999077492
O        11.3490410973        1.8844920713        4.3951410873
O         5.6727855904        0.0012836186        9.2048074853
O         1.8847354800        3.7817028022        5.2187627639
O         0.0013181010       13.2360597442        0.4105389489
O         5.6728121844        1.8848144416        2.8146181019
O        11.3490951605        0.0012818710        7.6228589717
O         3.7816814936        0.0012823289        7.6218429757
O        13.2360950605        1.8843344754        2.8151173360
O        13.2360529870        0.0013179797        9.2044932620
O         3.7817079689        1.8847363092        4.3962623983
O         1.8848461676        5.6727993869        6.8004029180
O         0.0012859615       11.3490909897        1.9921554683
O         0.0012943257        5.6728011646        0.4102096112
O         1.8844809531       11.3490514946        5.2198733470
O         0.0012814243        7.5661872114        1.9935325106
O         1.8847313901        9.4572053748        6.7999908238
O         7.5661868264        1.8848126476        4.3966341010
O         9.4572164776        0.0012881275        9.2044293676
O         1.8847974465        7.5661832833        5.2183927529
O         0.0012829402        9.4572095265        0.4105950316
O         9.4571982986        1.8847247779        2.8150308863
O         7.5662012754        0.0012789338        7.6214970142
O         3.7751189312        0.0026402695        1.9919293826
O        13.2372075454        1.8897255736        6.7996849517
O         0.0026299666        5.6705878781        4.3953804267
O         1.8897750274       11.3541734145        9.2027119461
O        13.2371496854        0.0026916498        5.2180280827
O         3.7752331412        1.8898413298        0.4127466475
O         1.8898545078        5.6706309483        2.8167608850
O         0.0026573209       11.3543813897        7.6225762500
O        11.3541886109        1.8897801601        0.4123061921
O         5.6705713778        0.0026347175        5.2196281608
O         5.6706334000        1.8898471125        6.7982497958
O        11.3543801804        0.0026573778        1.9924481594
O         1.8898356809        3.7752266839        9.2022734462
O         0.0026926097       13.2371390227        4.3970007990
O         0.0026338721        3.7750999896        7.6230955581
O         1.8897235002       13.2372278292        2.8153274389
O         3.7753236096        3.7817171553        1.9922254755
O        13.2371795878       13.2360638972        6.8007217964
O        11.3489714678        5.6705979179        4.3944662594
O         5.6728055243       11.3538671766        9.2041729505
O        13.2372098920        3.7816902082        5.2180861418
O         3.7751198548       13.2361216243        0.4118404835
O         5.6728098523        5.6706322605        2.8150124229
O        11.3490487859       11.3542141305        7.6236037121
O        11.3543785886       13.2360852602        0.4113295921
O         5.6706087020        3.7817310881        5.2192516634
O         3.7817069036       11.3539591407        7.6224956077
O        13.2361290732        5.6706076755        2.8158939824
O         5.6706126118       13.2361376537        6.7991358311
O        11.3539509764        3.7816970565        1.9925253040
O        13.2360913363       11.3543712082        9.2036945218
O         3.7817181078        5.6706199569        4.3957823914
O         5.6706338060        5.6728187965        6.8000167033
O        11.3541820600       11.3490465428        1.9914167195
O        13.2361213916        3.7751381937        9.2031861602
O         3.7816923997       13.2371808558        4.3969383779
O        11.3538812349        5.6727976820        0.4108516548
O         5.6705845203       11.3489847655        5.2205563710
O         3.7817247665        3.7753102368        7.6228010578
O        13.2360661377       13.2371859182        2.8142884409
O        13.2371829762       11.3490998551        5.2191037867
O         3.7753727521        5.6728065821        0.4110826720
O         5.6727993407       13.2372542795        2.8139772709
O        11.3489931737        3.7751968912        7.6240407794
O         3.7751973385       11.3489879746        1.9909809401
O        13.2372339524        5.6727997707        6.8010482032
O        11.3490966470       13.2371752966        4.3959219851
O         5.6728163030        3.7753734520        9.2039415819
O         3.7753483910        7.5661679867        1.9926514855
O        13.2372421216        9.4572123296        6.8006663724
O         7.5661929286        5.6706056553        4.3962410736
O         9.4571990603       11.3539583962        9.2037634582
O        13.2372179410        7.5661958185        5.2177461404
O         3.7753169351        9.4571927855        0.4115653618
O         9.4571918111        5.6706342972        2.8155218345
O         7.5661795577       11.3538845767        7.6221271311
O        11.3539737077        9.4572085301        0.4112615950
O         5.6706038353        7.5661772093        5.2187767982
O         5.6706375563        9.4571797073        6.7994954393
O        11.3538693972        7.5661878524        1.9928926664
O         9.4571733000        3.7753305873        9.2034551822
O         7.5662001432       13.2371947706        4.3972806016
O         7.5661660291        3.7753479886        7.6223552286
O         9.4572158838       13.2372506958        2.8143551874
O         7.5686328407        0.0026242064        1.9916413940
O         9.4637282146        1.8898387134        6.7985310735
O         0.0026557722        9.4638215739        4.3956924993
O         1.8898617218        7.5685967830        9.2020229005
O         9.4638167208        0.0026500105        5.2193271201
O         7.5686052713        1.8898482924        0.4130055767
O         1.8898383185        9.4637421577        2.8164934159
O         0.0026301298        7.5686243580        7.6233736740
O         7.5685778518        3.7817245468        1.9920295985
O         9.4638337258       13.2361104979        6.7994299557
O        11.3489989127        9.4637131326        4.3947412885
O         5.6728068110        7.5685977668        9.2037755913
O         9.4636106905        3.7817261683        5.2190398623
O         7.5686113774       13.2361339359        0.4121136500
O         5.6727990523        9.4635725021        2.8148361989
O        11.3489654790        7.5686035334        7.6242875729
O         3.7817165052        7.5685846473        7.6229864333
O        13.2361265348        9.4638397211        2.8155878617
O        13.2361229913        7.5686191552        9.2029009793
O         3.7817324286        9.4636018658        4.3959829085
O         9.4635707717        5.6728016148        6.8001852093
O         7.5686105191       11.3489702205        1.9907258290
O         7.5685932259        5.6728137930        0.4112434869
O         9.4637072323       11.3489910884        5.2202787305
O         7.5685871144        7.5661778663        1.9925099348
O         9.4636232305        9.4571865144        6.7997120736
O         7.5661716975        9.4635435136        4.3964095724
O         9.4571865399        7.5685935946        9.2032702399
O         9.4635381059        7.5661956544        5.2186096579
O         7.5685897891        9.4571792916        0.4117572938
O         9.4571848404        9.4636149589        2.8153133306
O         7.5661834138        7.5685825500        7.6225171935
     192
 i =        2, E =     -5782.3763619571
Ti         0.0005979597        0.0005851532        0.0000036524
Ti         1.8905174754        1.8905266764        4.8075086035
Ti         0.0005952622        1.8904323722        2.4016098674
Ti         1.8904440339        0.0005969534        7.2134090061
Ti         0.0006034151        3.7786085001        0.0027841167
Ti         1.8904604677       13.2380350758        4.8053395186
Ti        11.3482413193        1.8905088667        2.4036924133
Ti         5.6728767646        0.0006088551        7.2153212351
Ti         1.8906063927        3.7786740972        7.2106112862
Ti         0.0006015354       13.2380077745        2.4037860951
Ti         5.6729093791        1.8906607427        4.8056043368
Ti        11.3482935178        0.0005814746       -0.0020972957
Ti         3.7786168822        0.0006059610       -0.0027797872
Ti        13.2380305256        1.8904567744        4.8096764297
Ti        13.2380183396        0.0005996805        7.2112452417
Ti         3.7786765147        1.8906146476        2.4044057868
Ti         1.8906566159        5.6729166539        4.8094090764
Ti         0.0005844371       11.3483001866        0.0020857889
Ti         0.0006042177        5.6728786467        2.3996869262
Ti         1.8905154488       11.3482421030        7.2113188092
Ti         0.0006056305        7.5661998121        0.0040336711
Ti         1.8906283115        9.4602773401        4.8080855380
Ti         7.5661939830        1.8906500724        2.4056282787
Ti         9.4603057520        0.0006106604        7.2139809837
Ti         1.8906527401        7.5661881318        7.2093955794
Ti         0.0006138698        9.4603059253        2.4010456947
Ti         9.4602720355        1.8906280131        4.8069340511
Ti         7.5661887993        0.0006039827       -0.0040253291
Ti         3.7787322128        3.7787365164        0.0000027012
Ti        13.2380288587       13.2380386314        4.8075201886
Ti        11.3481162915        5.6728996531        2.4017874393
Ti         5.6729040669       11.3481085925        7.2132343825
Ti        13.2380180889        3.7786320167        7.2084681598
Ti         3.7786344642       13.2380135173        2.4065621271
Ti         5.6729576700        5.6729655366        4.8075118522
Ti        11.3482345682       11.3482423046        0.0000029989
Ti        11.3483134131       13.2380234075        2.4058705611
Ti         5.6729263144        3.7787574610        7.2124468019
Ti         3.7786621519       11.3481456072       -0.0007041178
Ti        13.2380337238        5.6728916449        4.8115985904
Ti         5.6729014622       13.2380358043        4.8034298187
Ti        11.3481369514        3.7786550730        0.0007066923
Ti        13.2380282400       11.3482984192        7.2091523546
Ti         3.7787536591        5.6729329734        2.4025783793
Ti         3.7787482993        7.5661497215        0.0011485107
Ti        13.2380400028        9.4603232373        4.8102434550
Ti         7.5661435634        5.6729412390        2.4037184061
Ti         9.4602683846       11.3481479216        7.2118945585
Ti        13.2380299437        7.5662030143        7.2072172774
Ti         3.7787440673        9.4601903481        2.4038220781
Ti         9.4601932101        5.6729533516        4.8087546563
Ti         7.5661856136       11.3481121275       -0.0019337145
Ti        11.3481554991        9.4602634131        2.4031159473
Ti         5.6729438137        7.5661396251        7.2112889857
Ti         5.6729561685        9.4601994238        4.8062513360
Ti        11.3481064724        7.5661820532        0.0019264965
Ti         9.4601883736        3.7787368259        7.2111915531
Ti         7.5662101525       13.2380273031        2.4078039918
Ti         7.5661429130        3.7787456575       -0.0011535206
Ti         9.4603234802       13.2380458202        4.8047772224
Ti         7.5661311233        7.5661358022        0.0000016492
Ti         9.4602232875        9.4602184791        4.8075110276
Ti         7.5661594734        9.4601816937        2.4049668687
Ti         9.4601783283        7.5661544940        7.2100526847
O         0.0010849726        0.0017784270        1.9933729075
O         1.8840640442        1.8890759024        6.7983978476
O         0.0018232155        1.8839666844        4.3963902624
O         1.8890154204        0.0011370649        9.2028722904
O         1.8839680107        0.0018292362        5.2186333666
O         0.0011339015        1.8890122941        0.4121477424
O         1.8890672763        1.8840606610        2.8166252771
O         0.0017790084        0.0010862571        7.6216491990
O         0.0011616974        3.7787743909        1.9938825469
O         1.8839825199       13.2367662031        6.8001201759
O        11.3496483448        1.8840539356        4.3945859401
O         5.6715800220        0.0011938741        9.2059261605
O         1.8840618447        3.7788472463        5.2180240579
O         0.0010922788       13.2368008502        0.4104040780
O         5.6716214508        1.8841168023        2.8134821472
O        11.3496930206        0.0011247912        7.6234605058
O         3.7787673888        0.0011608538        7.6211367079
O        13.2367645026        1.8839807542        2.8149063436
O        13.2367987452        0.0010901510        9.2046162814
O         3.7788516282        1.8840712112        4.3969930223
O         1.8841236809        5.6715984158        6.8015438614
O         0.0011280825       11.3496951347        1.9915551680
O         0.0011936039        5.6715962220        0.4090936821
O         1.8840548279       11.3496491603        5.2204290865
O         0.0011868164        7.5675290382        1.9946265718
O         1.8840752913        9.4600923908        6.8006832210
O         7.5675142238        1.8841140580        4.3977482835
O         9.4601634469        0.0011623768        9.2050906540
O         1.8841056091        7.5675124013        5.2172796000
O         0.0011629906        9.4601435392        0.4099365782
O         9.4600801618        1.8840706162        2.8143384741
O         7.5675415768        0.0011864194        7.6204041558
O         3.7680024398        0.0019058502        1.9923250134
O        13.2372928992        1.8890105818        6.7991033665
O         0.0019446054        5.6654352433        4.3953374759
O         1.8890595232       11.3544384447        9.2021808460
O        13.2373231311        0.0017807984        5.2178900725
O         3.7682520182        1.8891943794        0.4130783707
O         1.8892436876        5.6655520290        2.8174799158
O         0.0018162582       11.3545201992        7.6223514890
O        11.3544407200        1.8890663003        0.4128318990
O         5.6654124724        0.0019406071        5.2196714636
O         5.6655620842        1.8892317729        6.7975331292
O        11.3545165333        0.0018197770        1.9926712857
O         1.8891869958        3.7682500153        9.2019410515
O         0.0017822515       13.2373214997        4.3971267702
O         0.0019007132        3.7679905271        7.6226928623
O         1.8890122605       13.2373047137        2.8159123558
O         3.7684516696        3.7789733143        1.9932288661
O        13.2373332326       13.2368116263        6.8008484051
O        11.3494863916        5.6654996454        4.3937123659
O         5.6716062028       11.3543962721        9.2053233645
O        13.2372513293        3.7787813208        5.2173881549
O         3.7680103457       13.2366882639        0.4114541399
O         5.6716625172        5.6655829964        2.8137539085
O        11.3496586400       11.3544436181        7.6241537047
O        11.3545129838       13.2367580015        0.4111084294
O         5.6655186061        3.7790474312        5.2184592270
O         3.7788444088       11.3544440093        7.6217550285
O        13.2366549827        5.6654801947        2.8159482705
O         5.6654930932       13.2366693516        6.7990743350
O        11.3544360822        3.7788318948        1.9932693901
O        13.2367676784       11.3545097081        9.2039107179
O         3.7790318161        5.6655387024        4.3965670593
O         5.6655860281        5.6716773638        6.8012751101
O        11.3544344883       11.3496575238        1.9908722575
O        13.2366931448        3.7680261259        9.2035688849
O         3.7787717679       13.2372432636        4.3976341392
O        11.3544027227        5.6715982073        0.4097015841
O         5.6654745377       11.3494929604        5.2213130504
O         3.7789908853        3.7684399780        7.6218036643
O        13.2368074480       13.2373341595        2.8141727363
O        13.2372795984       11.3496951865        5.2197118531
O         3.7686006070        5.6716419006        0.4096906502
O         5.6715978733       13.2372469173        2.8128593183
O        11.3495373369        3.7682159096        7.6244055901
O         3.7682202001       11.3495425718        1.9906203763
O        13.2372394896        5.6715918864        6.8021653248
O        11.3497000551       13.2372752935        4.3953106243
O         5.6716607157        3.7685997731        9.2053314251
O         3.7685715895        7.5674609435        1.9940196161
O        13.2372660824        9.4601596182        6.8013226098
O         7.5674697963        5.6655281821        4.3974729440
O         9.4600844245       11.3544397585        9.2044594755
O        13.2372294985        7.5675341223        5.2166541006
O         3.7684457428        9.4599518373        0.4106106252
O         9.4598981263        5.6655692145        2.8147818725
O         7.5675065815       11.3544052403        7.6210016430
O        11.3544504095        9.4600970308        0.4105603709
O         5.6655263047        7.5674467877        5.2175458798
O         5.6655786188        9.4598881042        6.8002320457
O        11.3544009304        7.5675168984        1.9940169393
O         9.4599365243        3.7684548573        9.2044058721
O         7.5675373218       13.2372200180        4.3983732092
O         7.5674505347        3.7685692660        7.6209906184
O         9.4601604226       13.2372740229        2.8137037307
O         7.5742331844        0.0019369405        1.9916074850
O         9.4704764247        1.8891917305        6.7982081757
O         0.0019085947        9.4706950967        4.3961037383
O         1.8892452361        7.5741366752        9.2013133325
O         9.4706927059        0.0019046790        5.2189175341
O         7.5741478472        1.8892346923        0.4137066737
O         1.8891912690        9.4704826063        2.8168140573
O         0.0019444929        7.5742182378        7.6234081589
O         7.5740917041        3.7790409634        1.9928270201
O         9.4707101045       13.2366933501        6.7998288300
O        11.3495417136        9.4704638148        4.3943892037
O         5.6716562554        7.5741079951        9.2050367628
O         9.4702518375        3.7789735744        5.2180358941
O         7.5741989171       13.2366562246        0.4121607436
O         5.6716404456        9.4701287134        2.8134384223
O        11.3494819808        7.5741447330        7.6250325880
O         3.7790329796        7.5741065267        7.6221884971
O        13.2367012709        9.4707170959        2.8151869578
O        13.2366484474        7.5742121550        9.2028485151
O         3.7789769839        9.4702411468        4.3969845357
O         9.4701266905        5.6716441925        6.8015765471
O         7.5741553659       11.3494874041        1.9899823819
O         7.5740982948        5.6716720523        0.4099835437
O         9.4704595076       11.3495276781        5.2206261768
O         7.5740832154        7.5674530330        1.9937410095
O         9.4702764809        9.4599677384        6.8006700363
O         7.5674502687        9.4701082251        4.3977763792
O         9.4598943199        7.5741200512        9.2040112121
O         9.4700998358        7.5674821297        5.2172426778
O         7.5741109830        9.4598827513        0.4110148748
O         9.4599589282        9.4702725961        2.8143585985
O         7.5674632097        7.5740790856        7.6212869512
     192
 i =        3, E =     -5782.3766690841
Ti         0.0006794550        0.0006682487        0.0000025055
Ti         1.8889374871        1.8889454136        4.8075074608
Ti         0.0007082852        1.8888649021        2.4020115765
Ti         1.8888784636        0.0007061601        7.2130082326
Ti         0.0007510085        3.7757818551        0.0028803327
Ti         1.8888942062       13.2378406542        4.8057389398
Ti        11.3497478749        1.8889290139        2.4036970204
Ti         5.6712851342        0.0007904276        7.2159501266
Ti         1.8890204342        3.7758608292        7.2100818212
Ti         0.0006841216       13.2378455697        2.4037871439
Ti         5.6713187426        1.8891200094        4.8045351279
Ti        11.3497860920        0.0006928459       -0.0017002986
Ti         3.7757893170        0.0007531434       -0.0028748393
Ti        13.2378373389        1.8888903931        4.8092773506
Ti        13.2378582970        0.0006828476        7.2112452887
Ti         3.7758656607        1.8890289393        2.4049352710
Ti         1.8891162052        5.6713269958        4.8104778591
Ti         0.0006956838       11.3497941537        0.0016873938
Ti         0.0007874704        5.6712868377        2.3990595387
Ti         1.8889364988       11.3497461918        7.2113183137
Ti         0.0007891352        7.5679277848        0.0046273909
Ti         1.8890409503        9.4630696443        4.8085844024
Ti         7.5679186328        1.8891090739        2.4066621150
Ti         9.4631142616        0.0007537931        7.2140465904
Ti         1.8891098175        7.5679110152        7.2083595127
Ti         0.0007547737        9.4631154829        2.4009798959
Ti         9.4630646430        1.8890438453        4.8064344987
Ti         7.5679176072        0.0007873340       -0.0046196914
Ti         3.7759685441        3.7759719418        0.0000003209
Ti        13.2378695364       13.2378780234        4.8075208254
Ti        11.3495842406        5.6713128003        2.4007211570
Ti         5.6713161722       11.3495752347        7.2142981830
Ti        13.2377849313        3.7758026067        7.2083718636
Ti         3.7758065387       13.2377814757        2.4066564883
Ti         5.6713913305        5.6713983049        4.8075090833
Ti        11.3497394352       11.3497460559        0.0000014585
Ti        11.3498046674       13.2378319008        2.4054742266
Ti         5.6713384825        3.7760420450        7.2129463073
Ti         3.7758488446       11.3496576734       -0.0012284731
Ti        13.2377685578        5.6712972287        4.8122239482
Ti         5.6713050426       13.2377701845        4.8028007611
Ti        11.3496498143        3.7758431735        0.0012297432
Ti        13.2378343415       11.3497891912        7.2095507802
Ti         3.7760369213        5.6713441126        2.4020764268
Ti         3.7760317586        7.5678733182        0.0016226170
Ti        13.2378089999        9.4631329555        4.8103091234
Ti         7.5678399810        5.6713791774        2.4036917474
Ti         9.4630598647       11.3496579253        7.2123891709
Ti        13.2377645706        7.5679321666        7.2066232712
Ti         3.7759754335        9.4629333823        2.4038521862
Ti         9.4628847014        5.6713602687        4.8092909044
Ti         7.5679063663       11.3495833905       -0.0029649333
Ti        11.3496645706        9.4630551653        2.4026206126
Ti         5.6713807855        7.5678369307        7.2113168943
Ti         5.6713615044        9.4628915467        4.8057163953
Ti        11.3495786462        7.5679030244        0.0029571049
Ti         9.4629312027        3.7759715869        7.2111607980
Ti         7.5679400496       13.2377622076        2.4083988593
Ti         7.5678678231        3.7760320802       -0.0016269187
Ti         9.4631316050       13.2378192763        4.8047111627
Ti         7.5678287513        7.5678346387        0.0000005726
Ti         9.4629665305        9.4629646892        4.8075091979
Ti         7.5678862020        9.4628738144        2.4054737277
Ti         9.4628725566        7.5678802140        7.2095449296
O         0.0014008792        0.0016908632        1.9929047116
O         1.8845650725        1.8876606384        6.7987062752
O         0.0017049065        1.8844466595        4.3972144134
O         1.8875942341        0.0014612592        9.2019389449
O         1.8844480322        0.0017067049        5.2178092245
O         0.0014599198        1.8875945619        0.4130842246
O         1.8876580770        1.8845661923        2.8163134914
O         0.0016921653        0.0014006319        7.6221152605
O         0.0014599748        3.7767330198        1.9925080006
O         1.8844449513       13.2368110595        6.8009710324
O        11.3509985153        1.8845671975        4.3949646151
O         5.6708934891        0.0014471702        9.2056230627
O         1.8845636118        3.7767791116        5.2181147179
O         0.0013983973       13.2368207359        0.4108437348
O         5.6709328709        1.8845503149        2.8125246516
O        11.3510591283        0.0014615010        7.6243303596
O         3.7767297513        0.0014616514        7.6225081905
O        13.2368117873        1.8844445166        2.8140508063
O        13.2368197037        0.0013970740        9.2041731220
O         3.7767834732        1.8845677796        4.3968999026
O         1.8845494214        5.6709102428        6.8024989100
O         0.0014630747       11.3510613926        1.9906859277