 DBCSR| CPU Multiplication driver                                           XSMM (U)
 DBCSR| Multrec recursion limit                                              512 (U)
 DBCSR| Multiplication stack size                                           1000 (D)
 DBCSR| Maximum elements for images                                    UNLIMITED (U)
 DBCSR| Multiplicative factor virtual images                                   1 (U)
 DBCSR| Use multiplication densification                                       T (D)
 DBCSR| Multiplication size stacks                                             3 (U)
 DBCSR| Use memory pool for CPU allocation                                     F (U)
 DBCSR| Number of 3D layers                                               SINGLE (U)
 DBCSR| Use MPI memory allocation                                              F (U)
 DBCSR| Use RMA algorithm                                                      F (U)
 DBCSR| Use Communication thread                                               T (U)
 DBCSR| Communication thread load                                             87 (D)
 DBCSR| MPI: My process id                                                     0
 DBCSR| MPI: Number of processes                                             128
 DBCSR| OMP: Current number of threads                                         1
 DBCSR| OMP: Max number of threads                                             1
 DBCSR| Split modifier for TAS multiplication algorithm                  1.0E+00 (U)


  **** **** ******  **  PROGRAM STARTED AT               2025-06-22 05:14:16.622
 ***** ** ***  *** **   PROGRAM STARTED ON                             nid004171
 **    ****   ******    PROGRAM STARTED BY                                cahart
 ***** **    ** ** **   PROGRAM PROCESS ID                                164696
  **** **  *******  **  PROGRAM STARTED IN /mnt/lustre/a2fs-work2/work/e05/e05/c
                                           ahart/postdoc2/work/group/tio2/anatas
                                           e/cell-441/geo-opt/mp-390/neutral-fro
                                           m-hole/pbe-u-o/u-2.1

 CP2K| version string:                                       CP2K version 2024.3
 CP2K| source code revision number:                                  git:6712648
 CP2K| cp2kflags: omp libint fftw3 libxc libgrpp elpa parallel scalapack cosma x
 CP2K|            smm plumed2 spglib mkl sirius libvori libbqb libvdwxc hdf5
 CP2K| is freely available from                            https://www.cp2k.org/
 CP2K| Program compiled at                       Thu 12 Sep 2024 10:20:47 AM BST
 CP2K| Program compiled on                                                  ln04
 CP2K| Program compiled for                                                local
 CP2K| Data directory path    /mnt/lustre/a2fs-work1/work/y07/shared/apps/core/c
 CP2K| Input file name                                                 input.inp

 GLOBAL| Force Environment number                                              1
 GLOBAL| Basis set file name                                        BASIS_MOLOPT
 GLOBAL| Potential file name                                      GTH_POTENTIALS
 GLOBAL| MM Potential file name                                     MM_POTENTIAL
 GLOBAL| Coordinate file name                                         system.xyz
 GLOBAL| Method name                                                        CP2K
 GLOBAL| Project name                                                       tio2
 GLOBAL| Run type                                                         ENERGY
 GLOBAL| FFT library                                                       FFTW3
 GLOBAL| Diagonalization library                                            ELPA
 GLOBAL| DGEMM library                                                      BLAS
 GLOBAL| Minimum number of eigenvectors for ELPA usage                        16
 GLOBAL| Orthonormality check for eigenvectors                          DISABLED
 GLOBAL| Matrix multiplication library                                     COSMA
 GLOBAL| All-to-all communication in single precision                          F
 GLOBAL| FFTs using library dependent lengths                                  F
 GLOBAL| Grid backend                                                       AUTO
 GLOBAL| Global print level                                               MEDIUM
 GLOBAL| MPI I/O enabled                                                       T
 GLOBAL| Total number of message passing processes                           128
 GLOBAL| Number of threads for this process                                    1
 GLOBAL| This output is from process                                           0
 GLOBAL| Stack size for threads created by OpenMP (OMP_STACKSIZE)        default
 GLOBAL| CPU model name                          AMD EPYC 7742 64-Core Processor
 GLOBAL| CPUID                                                              1002

 MEMORY| system memory details [Kb]
 MEMORY|                        rank 0           min           max       average
 MEMORY| MemTotal            263341976     263341976     263341976     263341976
 MEMORY| MemFree             235134060     235134060     235134060     235134060
 MEMORY| Buffers                     0             0             0             0
 MEMORY| Cached                1433312       1433312       1433312       1433312
 MEMORY| Slab                  5993056       5993056       5993056       5993056
 MEMORY| SReclaimable           904984        904984        904984        904984
 MEMORY| MemLikelyFree       237472356     237472356     237472356     237472356


 *** Fundamental physical constants (SI units) ***

 *** Literature: B. J. Mohr and B. N. Taylor,
 ***             CODATA recommended values of the fundamental physical
 ***             constants: 2006, Web Version 5.1
 ***             http://physics.nist.gov/constants

 Speed of light in vacuum [m/s]                             2.99792458000000E+08
 Magnetic constant or permeability of vacuum [N/A**2]       1.25663706143592E-06
 Electric constant or permittivity of vacuum [F/m]          8.85418781762039E-12
 Planck constant (h) [J*s]                                  6.62606896000000E-34
 Planck constant (h-bar) [J*s]                              1.05457162825177E-34
 Elementary charge [C]                                      1.60217648700000E-19
 Electron mass [kg]                                         9.10938215000000E-31
 Electron g factor [ ]                                     -2.00231930436220E+00
 Proton mass [kg]                                           1.67262163700000E-27
 Fine-structure constant                                    7.29735253760000E-03
 Rydberg constant [1/m]                                     1.09737315685270E+07
 Avogadro constant [1/mol]                                  6.02214179000000E+23
 Boltzmann constant [J/K]                                   1.38065040000000E-23
 Atomic mass unit [kg]                                      1.66053878200000E-27
 Bohr radius [m]                                            5.29177208590000E-11

 *** Conversion factors ***

 [u] -> [a.u.]                                              1.82288848426455E+03
 [Angstrom] -> [Bohr] = [a.u.]                              1.88972613288564E+00
 [a.u.] = [Bohr] -> [Angstrom]                              5.29177208590000E-01
 [a.u.] -> [s]                                              2.41888432650478E-17
 [a.u.] -> [fs]                                             2.41888432650478E-02
 [a.u.] -> [J]                                              4.35974393937059E-18
 [a.u.] -> [N]                                              8.23872205491840E-08
 [a.u.] -> [K]                                              3.15774647902944E+05
 [a.u.] -> [kJ/mol]                                         2.62549961709828E+03
 [a.u.] -> [kcal/mol]                                       6.27509468713739E+02
 [a.u.] -> [Pa]                                             2.94210107994716E+13
 [a.u.] -> [bar]                                            2.94210107994716E+08
 [a.u.] -> [atm]                                            2.90362800883016E+08
 [a.u.] -> [eV]                                             2.72113838565563E+01
 [a.u.] -> [Hz]                                             6.57968392072181E+15
 [a.u.] -> [1/cm] (wave numbers)                            2.19474631370540E+05
 [a.u./Bohr**2] -> [1/cm]                                   5.14048714338585E+03
 

 CELL_TOP| Volume [angstrom^3]:                                      2198.132028
 CELL_TOP| Vector a [angstrom    15.120     0.000     0.000   |a| =    15.120000
 CELL_TOP| Vector b [angstrom     0.000    15.120     0.000   |b| =    15.120000
 CELL_TOP| Vector c [angstrom     0.000     0.000     9.615   |c| =     9.615020
 CELL_TOP| Angle (b,c), alpha [degree]:                                90.000000
 CELL_TOP| Angle (a,c), beta  [degree]:                                90.000000
 CELL_TOP| Angle (a,b), gamma [degree]:                                90.000000
 CELL_TOP| Requested initial symmetry:                       MONOCLINIC_GAMMA_AB
 CELL_TOP| Numerically orthorhombic:                                         YES
 CELL_TOP| Periodicity                                                       XYZ

 *** WARNING in atoms_input.F:123 :: Overwriting coordinates. Active    ***
 *** coordinates read from &COORD section. Active coordinates READ from ***
 *** &COORD section                                                     ***


 GENERATE|  Preliminary Number of Bonds generated:                             0
 GENERATE|  Achieved consistency in connectivity generation.

 CELL| Volume [angstrom^3]:                                          2198.132028
 CELL| Vector a [angstrom]:      15.120     0.000     0.000   |a| =    15.120000
 CELL| Vector b [angstrom]:       0.000    15.120     0.000   |b| =    15.120000
 CELL| Vector c [angstrom]:       0.000     0.000     9.615   |c| =     9.615020
 CELL| Angle (b,c), alpha [degree]:                                    90.000000
 CELL| Angle (a,c), beta  [degree]:                                    90.000000
 CELL| Angle (a,b), gamma [degree]:                                    90.000000
 CELL| Requested initial symmetry:                           MONOCLINIC_GAMMA_AB
 CELL| Numerically orthorhombic:                                             YES
 CELL| Periodicity                                                           XYZ

 CELL_REF| Volume [angstrom^3]:                                      2198.132028
 CELL_REF| Vector a [angstrom    15.120     0.000     0.000   |a| =    15.120000
 CELL_REF| Vector b [angstrom     0.000    15.120     0.000   |b| =    15.120000
 CELL_REF| Vector c [angstrom     0.000     0.000     9.615   |c| =     9.615020
 CELL_REF| Angle (b,c), alpha [degree]:                                90.000000
 CELL_REF| Angle (a,c), beta  [degree]:                                90.000000
 CELL_REF| Angle (a,b), gamma [degree]:                                90.000000
 CELL_REF| Requested initial symmetry:                       MONOCLINIC_GAMMA_AB
 CELL_REF| Numerically orthorhombic:                                         YES
 CELL_REF| Periodicity                                                       XYZ

 *******************************************************************************
 *******************************************************************************
 **                                                                           **
 **     #####                         ##              ##                      **
 **    ##   ##            ##          ##              ##                      **
 **   ##     ##                       ##            ######                    **
 **   ##     ##  ##   ##  ##   #####  ##  ##   ####   ##    #####    #####    **
 **   ##     ##  ##   ##  ##  ##      ## ##   ##      ##   ##   ##  ##   ##   **
 **   ##  ## ##  ##   ##  ##  ##      ####     ###    ##   ######   ######    **
 **    ##  ###   ##   ##  ##  ##      ## ##      ##   ##   ##       ##        **
 **     #######   #####   ##   #####  ##  ##  ####    ##    #####   ##        **
 **           ##                                                    ##        **
 **                                                                           **
 **                                                ... make the atoms dance   **
 **                                                                           **
 **            Copyright (C) by CP2K developers group (2000-2024)             **
 **                      J. Chem. Phys. 152, 194103 (2020)                    **
 **                                                                           **
 *******************************************************************************

 DFT| Spin unrestricted (spin-polarized) Kohn-Sham calculation               UKS
 DFT| Multiplicity                                                             1
 DFT| Number of spin states                                                    2
 DFT| Charge                                                                   0
 DFT| Self-interaction correction (SIC)                                       NO
 DFT| Cutoffs: density                                              1.000000E-10
 DFT|          gradient                                             1.000000E-10
 DFT|          tau                                                  1.000000E-10
 DFT|          cutoff_smoothing_range                               0.000000E+00
 DFT| XC density smoothing                                                  NONE
 DFT| XC derivatives                                                          PW

 DFT+U| Method                                                          MULLIKEN
 DFT+U| Check atomic kind information for details

 FUNCTIONAL| PBE:
 FUNCTIONAL| J.P.Perdew, K.Burke, M.Ernzerhof, Phys. Rev. Letter, vol. 77, n 18,
 FUNCTIONAL|  pp. 3865-3868, (1996) {spin polarized}                            


 QS| Method:                                                                 GPW
 QS| Density plane wave grid type                        NON-SPHERICAL FULLSPACE
 QS| Number of grid levels:                                                    4
 QS| Density cutoff [a.u.]:                                                300.0
 QS| Multi grid cutoff [a.u.]: 1) grid level                               300.0
 QS|                           2) grid level                               100.0
 QS|                           3) grid level                                33.3
 QS|                           4) grid level                                11.1
 QS| Grid level progression factor:                                          3.0
 QS| Relative density cutoff [a.u.]:                                        20.0
 QS| Interaction thresholds: eps_pgf_orb:                                1.0E-06
 QS|                         eps_filter_matrix:                          0.0E+00
 QS|                         eps_core_charge:                            1.0E-14
 QS|                         eps_rho_gspace:                             1.0E-12
 QS|                         eps_rho_rspace:                             1.0E-12
 QS|                         eps_gvg_rspace:                             1.0E-06
 QS|                         eps_ppl:                                    1.0E-02
 QS|                         eps_ppnl:                                   1.0E-08


 ATOMIC KIND INFORMATION

  1. Atomic kind: Ti                                    Number of atoms:      64

     Orbital Basis Set                                    DZVP-MOLOPT-SR-GTH-q12

       Number of orbital shell sets:                                           1
       Number of orbital shells:                                               8
       Number of primitive Cartesian functions:                                6
       Number of Cartesian basis functions:                                   31
       Number of spherical basis functions:                                   26
       Norm type:                                                              2

       Normalised Cartesian orbitals:

                        Set   Shell   Orbital            Exponent    Coefficient

                          1       1    2s                7.884570       0.015554
                                                         3.894698       0.963603
                                                         1.513589      -0.631435
                                                         0.596768      -0.343022
                                                         0.222222      -0.006534
                                                         0.077078       0.007652

                          1       2    3s                7.884570      -0.009340
                                                         3.894698       0.212624
                                                         1.513589      -0.258368
                                                         0.596768      -0.226206
                                                         0.222222       0.039438
                                                         0.077078       0.107179

                          1       3    4s                7.884570       0.276563
                                                         3.894698       0.105452
                                                         1.513589       0.085149
                                                         0.596768       0.882541
                                                         0.222222      -0.696223
                                                         0.077078       0.156638

                          1       4    3px               7.884570      -2.034794
                                                         3.894698       0.782008
                                                         1.513589       1.253903
                                                         0.596768       0.347823
                                                         0.222222       0.016778
                                                         0.077078      -0.000433
                          1       4    3py               7.884570      -2.034794
                                                         3.894698       0.782008
                                                         1.513589       1.253903
                                                         0.596768       0.347823
                                                         0.222222       0.016778
                                                         0.077078      -0.000433
                          1       4    3pz               7.884570      -2.034794
                                                         3.894698       0.782008
                                                         1.513589       1.253903
                                                         0.596768       0.347823
                                                         0.222222       0.016778
                                                         0.077078      -0.000433

                          1       5    4px               7.884570       0.376572
                                                         3.894698      -0.182875
                                                         1.513589      -0.474776
                                                         0.596768      -0.081757
                                                         0.222222       0.064432
                                                         0.077078       0.047279
                          1       5    4py               7.884570       0.376572
                                                         3.894698      -0.182875
                                                         1.513589      -0.474776
                                                         0.596768      -0.081757
                                                         0.222222       0.064432
                                                         0.077078       0.047279
                          1       5    4pz               7.884570       0.376572
                                                         3.894698      -0.182875
                                                         1.513589      -0.474776
                                                         0.596768      -0.081757
                                                         0.222222       0.064432
                                                         0.077078       0.047279

                          1       6    4dx2              7.884570       3.047350
                                                         3.894698       3.289529
                                                         1.513589       1.060616
                                                         0.596768       0.249930
                                                         0.222222       0.038806
                                                         0.077078       0.002319
                          1       6    4dxy              7.884570       5.278165
                                                         3.894698       5.697631
                                                         1.513589       1.837041
                                                         0.596768       0.432892
                                                         0.222222       0.067214
                                                         0.077078       0.004017
                          1       6    4dxz              7.884570       5.278165
                                                         3.894698       5.697631
                                                         1.513589       1.837041
                                                         0.596768       0.432892
                                                         0.222222       0.067214
                                                         0.077078       0.004017
                          1       6    4dy2              7.884570       3.047350
                                                         3.894698       3.289529
                                                         1.513589       1.060616
                                                         0.596768       0.249930
                                                         0.222222       0.038806
                                                         0.077078       0.002319
                          1       6    4dyz              7.884570       5.278165
                                                         3.894698       5.697631
                                                         1.513589       1.837041
                                                         0.596768       0.432892
                                                         0.222222       0.067214
                                                         0.077078       0.004017
                          1       6    4dz2              7.884570       3.047350
                                                         3.894698       3.289529
                                                         1.513589       1.060616
                                                         0.596768       0.249930
                                                         0.222222       0.038806
                                                         0.077078       0.002319

                          1       7    5dx2              7.884570      -2.119015
                                                         3.894698      -1.237751
                                                         1.513589      -0.746777
                                                         0.596768      -0.071514
                                                         0.222222       0.004086
                                                         0.077078       0.017595
                          1       7    5dxy              7.884570      -3.670241
                                                         3.894698      -2.143848
                                                         1.513589      -1.293455
                                                         0.596768      -0.123865
                                                         0.222222       0.007077
                                                         0.077078       0.030475
                          1       7    5dxz              7.884570      -3.670241
                                                         3.894698      -2.143848
                                                         1.513589      -1.293455
                                                         0.596768      -0.123865
                                                         0.222222       0.007077
                                                         0.077078       0.030475
                          1       7    5dy2              7.884570      -2.119015
                                                         3.894698      -1.237751
                                                         1.513589      -0.746777
                                                         0.596768      -0.071514
                                                         0.222222       0.004086
                                                         0.077078       0.017595
                          1       7    5dyz              7.884570      -3.670241
                                                         3.894698      -2.143848
                                                         1.513589      -1.293455
                                                         0.596768      -0.123865
                                                         0.222222       0.007077
                                                         0.077078       0.030475
                          1       7    5dz2              7.884570      -2.119015
                                                         3.894698      -1.237751
                                                         1.513589      -0.746777
                                                         0.596768      -0.071514
                                                         0.222222       0.004086
                                                         0.077078       0.017595

                          1       8    5fx3              7.884570      -0.342058
                                                         3.894698       0.375798
                                                         1.513589      -0.706469
                                                         0.596768      -0.229994
                                                         0.222222      -0.012723
                                                         0.077078       0.003932
                          1       8    5fx2y             7.884570      -0.764866
                                                         3.894698       0.840310
                                                         1.513589      -1.579712
                                                         0.596768      -0.514282
                                                         0.222222      -0.028450
                                                         0.077078       0.008792
                          1       8    5fx2z             7.884570      -0.764866
                                                         3.894698       0.840310
                                                         1.513589      -1.579712
                                                         0.596768      -0.514282
                                                         0.222222      -0.028450
                                                         0.077078       0.008792
                          1       8    5fxy2             7.884570      -0.764866
                                                         3.894698       0.840310
                                                         1.513589      -1.579712
                                                         0.596768      -0.514282
                                                         0.222222      -0.028450
                                                         0.077078       0.008792
                          1       8    5fxyz             7.884570      -1.324787
                                                         3.894698       1.455460
                                                         1.513589      -2.736142
                                                         0.596768      -0.890763
                                                         0.222222      -0.049276
                                                         0.077078       0.015229
                          1       8    5fxz2             7.884570      -0.764866
                                                         3.894698       0.840310
                                                         1.513589      -1.579712
                                                         0.596768      -0.514282
                                                         0.222222      -0.028450
                                                         0.077078       0.008792
                          1       8    5fy3              7.884570      -0.342058
                                                         3.894698       0.375798
                                                         1.513589      -0.706469
                                                         0.596768      -0.229994
                                                         0.222222      -0.012723
                                                         0.077078       0.003932
                          1       8    5fy2z             7.884570      -0.764866
                                                         3.894698       0.840310
                                                         1.513589      -1.579712
                                                         0.596768      -0.514282
                                                         0.222222      -0.028450
                                                         0.077078       0.008792
                          1       8    5fyz2             7.884570      -0.764866
                                                         3.894698       0.840310
                                                         1.513589      -1.579712
                                                         0.596768      -0.514282
                                                         0.222222      -0.028450
                                                         0.077078       0.008792
                          1       8    5fz3              7.884570      -0.342058
                                                         3.894698       0.375798
                                                         1.513589      -0.706469
                                                         0.596768      -0.229994
                                                         0.222222      -0.012723
                                                         0.077078       0.003932

       Atomic covalent radius [Angstrom]:                                  1.320

       Atomic van der Waals radius [Angstrom]:                             1.760

     GTH Potential information for                                   GTH-PBE-q12

       Description:                       Goedecker-Teter-Hutter pseudopotential
                                           Goedecker et al., PRB 54, 1703 (1996)
                                          Hartwigsen et al., PRB 58, 3641 (1998)
                                                      Krack, TCA 114, 145 (2005)

       Gaussian exponent of the core charge distribution:               3.462604
       Electronic configuration (s p d ...):                           4   6   2

       Parameters of the local part of the GTH pseudopotential:

                          rloc        C1          C2          C3          C4
                        0.380000    8.711442   -0.700287

       Parameters of the non-local part of the GTH pseudopotential:

                   l      r(l)      h(i,j,l)

                   0    0.337771    2.575264    3.692971
                                    3.692971   -4.767605
                   1    0.242531   -4.630541    8.870875
                                    8.870875  -10.496161
                   2    0.243317   -9.406653

  2. Atomic kind: O                                     Number of atoms:     128

     Orbital Basis Set                                     DZVP-MOLOPT-SR-GTH-q6

       Number of orbital shell sets:                                           1
       Number of orbital shells:                                               5
       Number of primitive Cartesian functions:                                5
       Number of Cartesian basis functions:                                   14
       Number of spherical basis functions:                                   13
       Norm type:                                                              2

       Normalised Cartesian orbitals:

                        Set   Shell   Orbital            Exponent    Coefficient

                          1       1    2s               10.389228       0.396646
                                                         3.849621       0.208811
                                                         1.388401      -0.301641
                                                         0.496955      -0.274061
                                                         0.162492      -0.033677

                          1       2    3s               10.389228       0.303673
                                                         3.849621       0.240943
                                                         1.388401      -0.313066
                                                         0.496955      -0.043055
                                                         0.162492       0.213991

                          1       3    3px              10.389228      -1.530415
                                                         3.849621      -1.371928
                                                         1.388401      -0.761951
                                                         0.496955      -0.253695
                                                         0.162492      -0.035541
                          1       3    3py              10.389228      -1.530415
                                                         3.849621      -1.371928
                                                         1.388401      -0.761951
                                                         0.496955      -0.253695
                                                         0.162492      -0.035541
                          1       3    3pz              10.389228      -1.530415
                                                         3.849621      -1.371928
                                                         1.388401      -0.761951
                                                         0.496955      -0.253695
                                                         0.162492      -0.035541

                          1       4    4px              10.389228      -0.565392
                                                         3.849621      -0.038231
                                                         1.388401      -0.382373
                                                         0.496955       0.179070
                                                         0.162492       0.122714
                          1       4    4py              10.389228      -0.565392
                                                         3.849621      -0.038231
                                                         1.388401      -0.382373
                                                         0.496955       0.179070
                                                         0.162492       0.122714
                          1       4    4pz              10.389228      -0.565392
                                                         3.849621      -0.038231
                                                         1.388401      -0.382373
                                                         0.496955       0.179070
                                                         0.162492       0.122714

                          1       5    4dx2             10.389228       1.867377
                                                         3.849621       0.670994
                                                         1.388401       1.353441
                                                         0.496955       0.273538
                                                         0.162492       0.006620
                          1       5    4dxy             10.389228       3.234392
                                                         3.849621       1.162195
                                                         1.388401       2.344229
                                                         0.496955       0.473781
                                                         0.162492       0.011466
                          1       5    4dxz             10.389228       3.234392
                                                         3.849621       1.162195
                                                         1.388401       2.344229
                                                         0.496955       0.473781
                                                         0.162492       0.011466
                          1       5    4dy2             10.389228       1.867377
                                                         3.849621       0.670994
                                                         1.388401       1.353441
                                                         0.496955       0.273538
                                                         0.162492       0.006620
                          1       5    4dyz             10.389228       3.234392
                                                         3.849621       1.162195
                                                         1.388401       2.344229
                                                         0.496955       0.473781
                                                         0.162492       0.011466
                          1       5    4dz2             10.389228       1.867377
                                                         3.849621       0.670994
                                                         1.388401       1.353441
                                                         0.496955       0.273538
                                                         0.162492       0.006620

       Atomic covalent radius [Angstrom]:                                  0.730

       Atomic van der Waals radius [Angstrom]:                             1.520

     GTH Potential information for                                    GTH-PBE-q6

       Description:                       Goedecker-Teter-Hutter pseudopotential
                                           Goedecker et al., PRB 54, 1703 (1996)
                                          Hartwigsen et al., PRB 58, 3641 (1998)
                                                      Krack, TCA 114, 145 (2005)

       Gaussian exponent of the core charge distribution:               8.360253
       Electronic configuration (s p d ...):                               2   4

       Parameters of the local part of the GTH pseudopotential:

                          rloc        C1          C2          C3          C4
                        0.244554  -16.667215    2.487311

       Parameters of the non-local part of the GTH pseudopotential:

                   l      r(l)      h(i,j,l)

                   0    0.220956   18.337458
                   1    0.211332

     A DFT+U correction is applied to atoms of this atomic kind:
       Angular quantum momentum number L:                                      1
       U(eff) = (U - J) value in [eV]:                                     2.100


 MOLECULE KIND INFORMATION


 All atoms are their own molecule, skipping detailed information


 TOTAL NUMBERS AND MAXIMUM NUMBERS

  Total number of            - Atomic kinds:                                   2
                             - Atoms:                                        192
                             - Shell sets:                                   192
                             - Shells:                                      1152
                             - Primitive Cartesian functions:               1024
                             - Cartesian basis functions:                   3776
                             - Spherical basis functions:                   3328

  Maximum angular momentum of- Orbital basis functions:                        3
                             - Local part of the GTH pseudopotential:          2
                             - Non-local part of the GTH pseudopotential:      3


 MODULE QUICKSTEP: ATOMIC COORDINATES IN ANGSTROM

   Atom Kind Element         X             Y             Z       Z(eff)     Mass
      1    1 Ti   22     -0.003896      0.063133     -0.006833  12.0000  47.8670
      2    1 Ti   22      1.894135      1.895497      4.808314  12.0000  47.8670
      3    1 Ti   22     -0.004367      1.912073      2.435446  12.0000  47.8670
      4    1 Ti   22      1.885735      0.011150      7.212142  12.0000  47.8670
      5    1 Ti   22     -0.003368      3.767971     -0.008665  12.0000  47.8670
      6    1 Ti   22      1.895437     13.247404      4.814240  12.0000  47.8670
      7    1 Ti   22     11.330014      1.902144      2.403529  12.0000  47.8670
      8    1 Ti   22      5.654560      0.005758      7.211433  12.0000  47.8670
      9    1 Ti   22      1.887953      3.781411      7.212018  12.0000  47.8670
     10    1 Ti   22     -0.002408     13.257387      2.432552  12.0000  47.8670
     11    1 Ti   22      5.659089      1.895078      4.807935  12.0000  47.8670
     12    1 Ti   22     11.331910      0.016308     -0.004095  12.0000  47.8670
     13    1 Ti   22      3.766868      0.020638      0.004725  12.0000  47.8670
     14    1 Ti   22     13.216540      1.889122      4.804721  12.0000  47.8670
     15    1 Ti   22     13.224307      0.010707      7.216300  12.0000  47.8670
     16    1 Ti   22      3.772046      1.914715      2.397440  12.0000  47.8670
     17    1 Ti   22      1.900141      5.664916      4.812887  12.0000  47.8670
     18    1 Ti   22     -0.000674     11.490837     -0.032780  12.0000  47.8670
     19    1 Ti   22      0.000380      5.683571      2.433521  12.0000  47.8670
     20    1 Ti   22      1.888366     11.349444      7.197586  12.0000  47.8670
     21    1 Ti   22      0.000692      7.455870     -0.033141  12.0000  47.8670
     22    1 Ti   22      1.923894      9.459232      4.812227  12.0000  47.8670
     23    1 Ti   22      7.546930      1.906608      2.400677  12.0000  47.8670
     24    1 Ti   22      9.437291      0.004125      7.219079  12.0000  47.8670
     25    1 Ti   22      1.891268      7.565256      7.195016  12.0000  47.8670
     26    1 Ti   22      0.002300      9.471102      2.487402  12.0000  47.8670
     27    1 Ti   22      9.436421      1.887570      4.805132  12.0000  47.8670
     28    1 Ti   22      7.544517      0.012870     -0.000280  12.0000  47.8670
     29    1 Ti   22      3.772652      3.806358      0.002148  12.0000  47.8670
     30    1 Ti   22     13.220020     13.246814      4.811848  12.0000  47.8670
     31    1 Ti   22     11.345615      5.689317      2.399590  12.0000  47.8670
     32    1 Ti   22      5.660381     11.360495      7.209459  12.0000  47.8670
     33    1 Ti   22     13.224469      3.777599      7.211429  12.0000  47.8670
     34    1 Ti   22      3.767674     13.247110      2.400765  12.0000  47.8670
     35    1 Ti   22      5.675976      5.670962      4.807789  12.0000  47.8670
     36    1 Ti   22     11.334589     11.355519     -0.000166  12.0000  47.8670
     37    1 Ti   22     11.340885     13.246167      2.402526  12.0000  47.8670
     38    1 Ti   22      5.659150      3.782055      7.212288  12.0000  47.8670
     39    1 Ti   22      3.781316     11.358492      0.003800  12.0000  47.8670
     40    1 Ti   22     13.223094      5.662016      4.815346  12.0000  47.8670
     41    1 Ti   22      5.661579     13.241969      4.799888  12.0000  47.8670
     42    1 Ti   22     11.335335      3.795069      0.000673  12.0000  47.8670
     43    1 Ti   22     13.230354     11.352428      7.198842  12.0000  47.8670
     44    1 Ti   22      3.779671      5.696208      2.403699  12.0000  47.8670
     45    1 Ti   22      3.787527      7.584701     -0.003900  12.0000  47.8670
     46    1 Ti   22     13.201071      9.461913      4.813972  12.0000  47.8670
     47    1 Ti   22      7.566246      5.690934      2.403723  12.0000  47.8670
     48    1 Ti   22      9.452484     11.354499      7.213518  12.0000  47.8670
     49    1 Ti   22     13.231945      7.566054      7.194205  12.0000  47.8670
     50    1 Ti   22      3.795365      9.467666      2.399192  12.0000  47.8670
     51    1 Ti   22      9.457206      5.666694      4.809091  12.0000  47.8670
     52    1 Ti   22      7.553869     11.363734     -0.005556  12.0000  47.8670
     53    1 Ti   22     11.334466      9.471397      2.397442  12.0000  47.8670
     54    1 Ti   22      5.673281      7.562370      7.208791  12.0000  47.8670
     55    1 Ti   22      5.683500      9.459961      4.817305  12.0000  47.8670
     56    1 Ti   22     11.337960      7.582251      0.004107  12.0000  47.8670
     57    1 Ti   22      9.444539      3.777756      7.212203  12.0000  47.8670
     58    1 Ti   22      7.554350     13.244879      2.406799  12.0000  47.8670
     59    1 Ti   22      7.551699      3.800339     -0.001264  12.0000  47.8670
     60    1 Ti   22      9.446510     13.240255      4.803673  12.0000  47.8670
     61    1 Ti   22      7.563585      7.578314     -0.002818  12.0000  47.8670
     62    1 Ti   22      9.446470      9.462646      4.814663  12.0000  47.8670
     63    1 Ti   22      7.563117      9.471921      2.396532  12.0000  47.8670
     64    1 Ti   22      9.459089      7.561376      7.204767  12.0000  47.8670
     65    2 O     8      0.002175      0.017387      1.997832   6.0000  15.9994
     66    2 O     8      1.882896      1.891083      6.798497   6.0000  15.9994
     67    2 O     8     -0.002716      1.883867      4.397002   6.0000  15.9994
     68    2 O     8      1.879991      0.060477      9.204318   6.0000  15.9994
     69    2 O     8      1.881566      0.004071      5.215646   6.0000  15.9994
     70    2 O     8     -0.001464      1.918847      0.421871   6.0000  15.9994
     71    2 O     8      1.885460      1.938265      2.813773   6.0000  15.9994
     72    2 O     8     -0.003873      0.000252      7.625017   6.0000  15.9994
     73    2 O     8     -0.004363      3.809210      1.999865   6.0000  15.9994
     74    2 O     8      1.887642     13.238802      6.802064   6.0000  15.9994
     75    2 O     8     11.335496      1.881143      4.397011   6.0000  15.9994
     76    2 O     8      5.651106     -0.000755      9.209672   6.0000  15.9994
     77    2 O     8      1.883292      3.779075      5.216423   6.0000  15.9994
     78    2 O     8     -0.000884     13.288830      0.401514   6.0000  15.9994
     79    2 O     8      5.656110      1.942048      2.811105   6.0000  15.9994
     80    2 O     8     11.336442      0.002908      7.622723   6.0000  15.9994
     81    2 O     8      3.766890      0.000237      7.625097   6.0000  15.9994
     82    2 O     8     13.226298      1.892844      2.813906   6.0000  15.9994
     83    2 O     8     13.228204      0.058663      9.205905   6.0000  15.9994
     84    2 O     8      3.769753      1.882273      4.395205   6.0000  15.9994
     85    2 O     8      1.889008      5.666605      6.797744   6.0000  15.9994
     86    2 O     8     -0.000044     11.341690      1.938857   6.0000  15.9994
     87    2 O     8     -0.000565      5.661334      0.405689   6.0000  15.9994
     88    2 O     8      1.886616     11.346175      5.217331   6.0000  15.9994
     89    2 O     8      0.000610      7.605300      1.941263   6.0000  15.9994
     90    2 O     8      1.876346      9.458202      6.798434   6.0000  15.9994
     91    2 O     8      7.545002      1.886634      4.392861   6.0000  15.9994
     92    2 O     8      9.440097      0.006286      9.205139   6.0000  15.9994
     93    2 O     8      1.880073      7.568588      5.218897   6.0000  15.9994
     94    2 O     8     -0.000134      9.473246      0.266120   6.0000  15.9994
     95    2 O     8      9.442598      1.887249      2.813715   6.0000  15.9994
     96    2 O     8      7.541463     -0.002010      7.625585   6.0000  15.9994
     97    2 O     8      3.767871      0.018224      1.994047   6.0000  15.9994
     98    2 O     8     13.233426      1.889087      6.799017   6.0000  15.9994
     99    2 O     8      0.000464      5.654090      4.396145   6.0000  15.9994
    100    2 O     8      1.873984     11.285501      9.211630   6.0000  15.9994
    101    2 O     8     13.235909      0.003058      5.217307   6.0000  15.9994
    102    2 O     8      3.768688      1.916553      0.412882   6.0000  15.9994
    103    2 O     8      1.886231      5.714310      2.816558   6.0000  15.9994
    104    2 O     8     -0.000238     11.420158      7.609326   6.0000  15.9994
    105    2 O     8     11.300690      1.906483      0.410778   6.0000  15.9994
    106    2 O     8      5.650793      0.003119      5.215738   6.0000  15.9994
    107    2 O     8      5.649587      1.889521      6.801093   6.0000  15.9994
    108    2 O     8     11.351800      0.009702      1.989470   6.0000  15.9994
    109    2 O     8      1.882582      3.822621      9.204458   6.0000  15.9994
    110    2 O     8     -0.001762     13.236310      4.393820   6.0000  15.9994
    111    2 O     8     -0.003300      3.763566      7.623748   6.0000  15.9994
    112    2 O     8      1.881283     13.237283      2.815396   6.0000  15.9994
    113    2 O     8      3.766717      3.816031      1.991179   6.0000  15.9994
    114    2 O     8     13.228998     13.240193      6.802932   6.0000  15.9994
    115    2 O     8     11.350225      5.650629      4.398231   6.0000  15.9994
    116    2 O     8      5.658996     11.409225      9.203640   6.0000  15.9994
    117    2 O     8     13.235793      3.774623      5.215171   6.0000  15.9994
    118    2 O     8      3.708014     13.244833      0.409385   6.0000  15.9994
    119    2 O     8      5.671625      5.710463      2.815373   6.0000  15.9994
    120    2 O     8     11.351272     11.358836      7.624982   6.0000  15.9994
    121    2 O     8     11.358903     13.241871      0.404480   6.0000  15.9994
    122    2 O     8      5.653099      3.779988      5.218888   6.0000  15.9994
    123    2 O     8      3.765837     11.356558      7.625187   6.0000  15.9994
    124    2 O     8     13.235844      5.713782      2.815477   6.0000  15.9994
    125    2 O     8      5.649885     13.237389      6.796454   6.0000  15.9994
    126    2 O     8     11.352952      3.797280      1.992558   6.0000  15.9994
    127    2 O     8     13.244628     11.291213      9.211411   6.0000  15.9994
    128    2 O     8      3.777554      5.659030      4.398178   6.0000  15.9994
    129    2 O     8      5.650971      5.670319      6.797631   6.0000  15.9994
    130    2 O     8     11.352081     11.358376      1.992352   6.0000  15.9994
    131    2 O     8     13.228161      3.814536      9.204922   6.0000  15.9994
    132    2 O     8      3.767886     13.238563      4.396062   6.0000  15.9994
    133    2 O     8     11.357305      5.698486      0.409373   6.0000  15.9994
    134    2 O     8      5.649760     11.348825      5.217793   6.0000  15.9994
    135    2 O     8      3.769008      3.765772      7.623288   6.0000  15.9994
    136    2 O     8     13.233838     13.237095      2.814170   6.0000  15.9994
    137    2 O     8     13.236611     11.349803      5.218981   6.0000  15.9994
    138    2 O     8      3.762064      5.706328      0.407337   6.0000  15.9994
    139    2 O     8      5.655103     13.240139      2.810890   6.0000  15.9994
    140    2 O     8     11.339459      3.760813      7.623907   6.0000  15.9994
    141    2 O     8      3.768209     11.356519      1.994688   6.0000  15.9994
    142    2 O     8     13.229688      5.664251      6.797335   6.0000  15.9994
    143    2 O     8     11.343444     13.241652      4.396305   6.0000  15.9994
    144    2 O     8      5.656545      3.825495      9.206504   6.0000  15.9994
    145    2 O     8      3.767623      7.587732      1.991296   6.0000  15.9994
    146    2 O     8     13.243633      9.459561      6.799763   6.0000  15.9994
    147    2 O     8      7.569865      5.647970      4.397513   6.0000  15.9994
    148    2 O     8      9.454176     11.353104      9.204276   6.0000  15.9994
    149    2 O     8     13.237038      7.571064      5.218306   6.0000  15.9994
    150    2 O     8      3.823753      9.473904      0.411115   6.0000  15.9994
    151    2 O     8      9.463390      5.708823      2.814402   6.0000  15.9994
    152    2 O     8      7.555028     11.352797      7.619906   6.0000  15.9994
    153    2 O     8     11.341541      9.471484      0.412667   6.0000  15.9994
    154    2 O     8      5.703374      7.566002      5.219600   6.0000  15.9994
    155    2 O     8      5.649933      9.459837      6.804919   6.0000  15.9994
    156    2 O     8     11.353275      7.585574      1.993930   6.0000  15.9994
    157    2 O     8      9.443754      3.827759      9.204079   6.0000  15.9994
    158    2 O     8      7.551643     13.234578      4.395311   6.0000  15.9994
    159    2 O     8      7.548324      3.768751      7.622518   6.0000  15.9994
    160    2 O     8      9.451345     13.240747      2.813849   6.0000  15.9994
    161    2 O     8      7.530406      0.012798      1.994444   6.0000  15.9994
    162    2 O     8      9.420398      1.887284      6.802303   6.0000  15.9994
    163    2 O     8      0.001546      9.468701      4.389402   6.0000  15.9994
    164    2 O     8      1.877235      7.663484      9.209679   6.0000  15.9994
    165    2 O     8      9.422695      0.001300      5.219020   6.0000  15.9994
    166    2 O     8      7.533645      1.906207      0.408925   6.0000  15.9994
    167    2 O     8      1.890917      9.475831      2.807929   6.0000  15.9994
    168    2 O     8      0.000190      7.473252      7.608548   6.0000  15.9994
    169    2 O     8      7.586842      3.804212      1.990753   6.0000  15.9994
    170    2 O     8      9.464371     13.237074      6.801853   6.0000  15.9994
    171    2 O     8     11.347680      9.469935      4.400147   6.0000  15.9994
    172    2 O     8      5.667410      7.592244      9.196327   6.0000  15.9994
    173    2 O     8      9.466283      3.773499      5.217198   6.0000  15.9994
    174    2 O     8      7.584273     13.244309      0.412185   6.0000  15.9994
    175    2 O     8      5.672192      9.471463      2.823511   6.0000  15.9994
    176    2 O     8     11.353965      7.531349      7.623533   6.0000  15.9994
    177    2 O     8      3.768676      7.532489      7.620098   6.0000  15.9994
    178    2 O     8     13.234129      9.474241      2.808319   6.0000  15.9994
    179    2 O     8     13.245634      7.659842      9.209367   6.0000  15.9994
    180    2 O     8      3.779890      9.424053      4.401547   6.0000  15.9994
    181    2 O     8      9.465336      5.665547      6.797236   6.0000  15.9994
    182    2 O     8      7.538695     11.357803      1.991581   6.0000  15.9994
    183    2 O     8      7.534225      5.698583      0.411469   6.0000  15.9994
    184    2 O     8      9.466134     11.351557      5.220751   6.0000  15.9994
    185    2 O     8      7.587038      7.586516      1.992175   6.0000  15.9994
    186    2 O     8      9.469214      9.459666      6.803433   6.0000  15.9994
    187    2 O     8      7.568472      9.472205      4.401535   6.0000  15.9994
    188    2 O     8      9.458470      7.595196      9.203741   6.0000  15.9994
    189    2 O     8      9.468881      7.567629      5.219168   6.0000  15.9994
    190    2 O     8      7.533153      9.473861      0.407454   6.0000  15.9994
    191    2 O     8      9.456992      9.477078      2.816385   6.0000  15.9994
    192    2 O     8      7.568127      7.537149      7.618635   6.0000  15.9994



 SCF PARAMETERS         Density guess:                                   RESTART
                        --------------------------------------------------------
                        max_scf:                                              40
                        max_scf_history:                                       0
                        max_diis:                                              4
                        --------------------------------------------------------
                        eps_scf:                                        1.00E-06
                        eps_scf_history:                                0.00E+00
                        eps_diis:                                       1.00E-01
                        eps_eigval:                                     1.00E-05
                        --------------------------------------------------------
                        level_shift [a.u.]:                             0.000000
                        --------------------------------------------------------
                        Outer loop SCF in use 
                        No variables optimised in outer loop
                        eps_scf                                         1.00E-06
                        max_scf                                               60
                        No outer loop optimization
                        step_size                                       5.00E-01

 PW_GRID| Information for grid number                                          1
 PW_GRID| Grid distributed over                                   128 processors
 PW_GRID| Real space group dimensions                                   128    1
 PW_GRID| the grid is blocked:                                                NO
 PW_GRID| Cutoff [a.u.]                                                    300.0
 PW_GRID| spherical cutoff:                                                   NO
 PW_GRID|   Bounds   1           -112     112                Points:         225
 PW_GRID|   Bounds   2           -112     112                Points:         225
 PW_GRID|   Bounds   3            -72      71                Points:         144
 PW_GRID| Volume element (a.u.^3)  0.2035E-02     Volume (a.u.^3)     14833.7304
 PW_GRID| Grid span                                                    FULLSPACE
 PW_GRID|   Distribution                         Average         Max         Min
 PW_GRID|   G-Vectors                            56953.1       57150       56925
 PW_GRID|   G-Rays                                 253.1         254         253
 PW_GRID|   Real Space Points                    56953.1       64800       32400

 PW_GRID| Information for grid number                                          2
 PW_GRID| Number of the reference grid                                         1
 PW_GRID| Grid distributed over                                   128 processors
 PW_GRID| Real space group dimensions                                   128    1
 PW_GRID| the grid is blocked:                                                NO
 PW_GRID| Cutoff [a.u.]                                                    100.0
 PW_GRID| spherical cutoff:                                                   NO
 PW_GRID|   Bounds   1            -67      67                Points:         135
 PW_GRID|   Bounds   2            -67      67                Points:         135
 PW_GRID|   Bounds   3            -40      40                Points:          81
 PW_GRID| Volume element (a.u.^3)  0.1005E-01     Volume (a.u.^3)     14833.7304
 PW_GRID| Grid span                                                    FULLSPACE
 PW_GRID|   Distribution                         Average         Max         Min
 PW_GRID|   G-Vectors                            11533.0       12150       10800
 PW_GRID|   G-Rays                                  85.4          90          80
 PW_GRID|   Real Space Points                    11533.0       21870       10935

 PW_GRID| Information for grid number                                          3
 PW_GRID| Number of the reference grid                                         1
 PW_GRID| Grid distributed over                                   128 processors
 PW_GRID| Real space group dimensions                                     8   16
 PW_GRID| the grid is blocked:                                                NO
 PW_GRID| Cutoff [a.u.]                                                     33.3
 PW_GRID| spherical cutoff:                                                   NO
 PW_GRID|   Bounds   1            -37      37                Points:          75
 PW_GRID|   Bounds   2            -37      37                Points:          75
 PW_GRID|   Bounds   3            -24      23                Points:          48
 PW_GRID| Volume element (a.u.^3)  0.5494E-01     Volume (a.u.^3)     14833.7304
 PW_GRID| Grid span                                                    FULLSPACE
 PW_GRID|   Distribution                         Average         Max         Min
 PW_GRID|   G-Vectors                             2109.4        2475        1725
 PW_GRID|   G-Rays                                  28.1          33          23
 PW_GRID|   Real Space Points                     2109.4        2400        1728

 PW_GRID| Information for grid number                                          4
 PW_GRID| Number of the reference grid                                         1
 PW_GRID| Grid distributed over                                   128 processors
 PW_GRID| Real space group dimensions                                     8   16
 PW_GRID| the grid is blocked:                                                NO
 PW_GRID| Cutoff [a.u.]                                                     11.1
 PW_GRID| spherical cutoff:                                                   NO
 PW_GRID|   Bounds   1            -22      22                Points:          45
 PW_GRID|   Bounds   2            -22      22                Points:          45
 PW_GRID|   Bounds   3            -13      13                Points:          27
 PW_GRID| Volume element (a.u.^3)  0.2713         Volume (a.u.^3)     14833.7304
 PW_GRID| Grid span                                                    FULLSPACE
 PW_GRID|   Distribution                         Average         Max         Min
 PW_GRID|   G-Vectors                              427.1         585         270
 PW_GRID|   G-Rays                                   9.5          13           6
 PW_GRID|   Real Space Points                      427.1         486         270

 POISSON| Solver                                                        PERIODIC
 POISSON| Periodicity                                                        XYZ

 RS_GRID| Information for grid number                                          1
 RS_GRID|   Bounds   1           -112     112                Points:         225
 RS_GRID|   Bounds   2           -112     112                Points:         225
 RS_GRID|   Bounds   3            -72      71                Points:         144
 RS_GRID| Real space distribution over                                  8 groups
 RS_GRID| Real space distribution along direction                              1
 RS_GRID| Border size                                                         26
 RS_GRID| Real space distribution over                                 16 groups
 RS_GRID| Real space distribution along direction                              2
 RS_GRID| Border size                                                         26
 RS_GRID|   Distribution                         Average         Max         Min
 RS_GRID|   Planes                                  80.1          81          80
 RS_GRID|   Distribution                         Average         Max         Min
 RS_GRID|   Planes                                  66.1          67          66

 RS_GRID| Information for grid number                                          2
 RS_GRID|   Bounds   1            -67      67                Points:         135
 RS_GRID|   Bounds   2            -67      67                Points:         135
 RS_GRID|   Bounds   3            -40      40                Points:          81
 RS_GRID| Real space distribution over                                  8 groups
 RS_GRID| Real space distribution along direction                              1
 RS_GRID| Border size                                                         24
 RS_GRID| Real space distribution over                                 16 groups
 RS_GRID| Real space distribution along direction                              2
 RS_GRID| Border size                                                         24
 RS_GRID|   Distribution                         Average         Max         Min
 RS_GRID|   Planes                                  64.9          65          64
 RS_GRID|   Distribution                         Average         Max         Min
 RS_GRID|   Planes                                  56.4          57          56

 RS_GRID| Information for grid number                                          3
 RS_GRID|   Bounds   1            -37      37                Points:          75
 RS_GRID|   Bounds   2            -37      37                Points:          75
 RS_GRID|   Bounds   3            -24      23                Points:          48
 RS_GRID| Real space fully replicated
 RS_GRID| Group size                                                           1

 RS_GRID| Information for grid number                                          4
 RS_GRID|   Bounds   1            -22      22                Points:          45
 RS_GRID|   Bounds   2            -22      22                Points:          45
 RS_GRID|   Bounds   3            -13      13                Points:          27
 RS_GRID| Real space fully replicated
 RS_GRID| Group size                                                           1

 Spin 1

 Number of electrons:                                                        768
 Number of occupied orbitals:                                                768
 Number of molecular orbitals:                                               768

 Spin 2

 Number of electrons:                                                        768
 Number of occupied orbitals:                                                768
 Number of molecular orbitals:                                               768

 Number of orbital functions:                                               3328
 Number of independent orbital functions:                                   3328

 Extrapolation method: initial_guess

 *** WARNING in qs_initial_guess.F:306 :: User requested to restart the    ***
 *** wavefunction from the file named: tio2-RESTART.wfn. This file does    ***
 *** not exist. Please check the existence of the file or change properly  ***
 *** the value of the keyword WFN_RESTART_FILE_NAME. Calculation continues ***
 *** using ATOMIC GUESS.                                                   ***


 Atomic guess: The first density matrix is obtained in terms of atomic orbitals
               and electronic configurations assigned to each atomic kind

 Guess for atomic kind: Ti

 Electronic structure
    Total number of core electrons                                         10.00
    Total number of valence electrons                                      12.00
    Total number of electrons                                              22.00
    Multiplicity                                                   not specified
    S   [  2.00  2.00] 2.00  2.00
    P   [  6.00] 6.00
    D      2.00


 *******************************************************************************
                  Iteration          Convergence                     Energy [au]
 *******************************************************************************
                          1         2.59099                     -56.573945749309
                          2        0.737518                     -57.461623245624
                          3        0.123244E-01                 -57.676656834797
                          4        0.338536E-02                 -57.676690535970
                          5        0.252157E-03                 -57.676697146183
                          6        0.162704E-05                 -57.676697160103
                          7        0.846593E-06                 -57.676697160104

 Energy components [Hartree]           Total Energy ::          -57.676697160104
                                        Band Energy ::          -13.440549799540
                                     Kinetic Energy ::           25.008468428381
                                   Potential Energy ::          -82.685165588485
                                      Virial (-V/T) ::            3.306286661467
                                        Core Energy ::          -97.155838374470
                                          XC Energy ::           -6.919409696495
                                     Coulomb Energy ::           46.398550910862
                       Total Pseudopotential Energy ::         -122.259340742080
                       Local Pseudopotential Energy ::         -118.928992669456
                    Nonlocal Pseudopotential Energy ::           -3.330348072625
                                        Confinement ::            0.950339392289

 Orbital energies  State     L     Occupation   Energy[a.u.]          Energy[eV]

                       1     0          2.000      -2.312566          -62.928123
                       2     0          2.000      -0.123060           -3.348633

                       1     1          6.000      -1.385567          -37.703193

                       1     2          2.000      -0.127948           -3.481643


 Total Electron Density at R=0:                                         0.004726

 Guess for atomic kind: O

 Electronic structure
    Total number of core electrons                                          2.00
    Total number of valence electrons                                       6.00
    Total number of electrons                                               8.00
    Multiplicity                                                   not specified
    S   [  2.00] 2.00
    P      4.00


 *******************************************************************************
                  Iteration          Convergence                     Energy [au]
 *******************************************************************************
                          1        0.702811                     -15.577904332270
                          2        0.612408                     -15.588447180504
                          3        0.955344E-02                 -15.655871208406
                          4        0.223754E-02                 -15.655885053552
                          5        0.157183E-02                 -15.655885461027
                          6        0.124953E-02                 -15.655885607150
                          7        0.312011E-06                 -15.655885858066

 Energy components [Hartree]           Total Energy ::          -15.655885858066
                                        Band Energy ::           -2.983128125584
                                     Kinetic Energy ::           11.754765134683
                                   Potential Energy ::          -27.410650992749
                                      Virial (-V/T) ::            2.331875684345
                                        Core Energy ::          -26.153522949072
                                          XC Energy ::           -3.157392363346
                                     Coulomb Energy ::           13.655029454351
                       Total Pseudopotential Energy ::          -37.943026860963
                       Local Pseudopotential Energy ::          -39.220419683052
                    Nonlocal Pseudopotential Energy ::            1.277392822089
                                        Confinement ::            0.347387772086

 Orbital energies  State     L     Occupation   Energy[a.u.]          Energy[eV]

                       1     0          2.000      -0.861522          -23.443215

                       1     1          4.000      -0.315021           -8.572154


 Total Electron Density at R=0:                                         0.000093

 Spin 1
 Re-scaling the density matrix to get the right number of electrons for spin 1
                  # Electrons              Trace(P)               Scaling factor
                          768               768.001                        1.000

 Spin 2
 Re-scaling the density matrix to get the right number of electrons for spin 2
                  # Electrons              Trace(P)               Scaling factor
                          768               768.001                        1.000


 SCF WAVEFUNCTION OPTIMIZATION

  ----------------------------------- OT ---------------------------------------
  Minimizer      : DIIS                : direct inversion
                                         in the iterative subspace
                                         using   7 DIIS vectors
                                         safer DIIS on
  Preconditioner : FULL_SINGLE_INVERSE : inversion of 
                                         H + eS - 2*(Sc)(c^T*H*c+const)(Sc)^T
  Precond_solver : DEFAULT
  stepsize       :    0.08000000                  energy_gap     :    0.08000000
  eps_taylor     :   0.10000E-15                  max_taylor     :             4
  ----------------------------------- OT ---------------------------------------

  Step     Update method      Time    Convergence         Total energy    Change
  ------------------------------------------------------------------------------
     1 OT DIIS     0.80E-01    2.3     0.01006447     -5659.3090202261 -5.66E+03
     2 OT DIIS     0.80E-01    1.5     0.00726547     -5694.3307787193 -3.50E+01
     3 OT DIIS     0.80E-01    1.5     0.00470349     -5726.3974362898 -3.21E+01
     4 OT DIIS     0.80E-01    1.5     0.00369305     -5736.7987690443 -1.04E+01
     5 OT DIIS     0.80E-01    1.5     0.00269782     -5748.5950612552 -1.18E+01
     6 OT DIIS     0.80E-01    1.5     0.00221560     -5755.6580637043 -7.06E+00
     7 OT DIIS     0.80E-01    1.6     0.00184724     -5761.9786011755 -6.32E+00
     8 OT DIIS     0.80E-01    1.5     0.00148244     -5767.9113939633 -5.93E+00
     9 OT DIIS     0.80E-01    1.5     0.00128207     -5771.5750337863 -3.66E+00
    10 OT DIIS     0.80E-01    1.5     0.00099901     -5774.8962498451 -3.32E+00
    11 OT DIIS     0.80E-01    1.5     0.00090976     -5775.7309063606 -8.35E-01
    12 OT DIIS     0.80E-01    1.5     0.00073024     -5777.6212050754 -1.89E+00
    13 OT DIIS     0.80E-01    1.5     0.00060162     -5778.9049520181 -1.28E+00
    14 OT DIIS     0.80E-01    1.5     0.00049561     -5779.8633565904 -9.58E-01
    15 OT DIIS     0.80E-01    1.5     0.00044758     -5780.3166880211 -4.53E-01
    16 OT DIIS     0.80E-01    1.5     0.00037305     -5780.9360581894 -6.19E-01
    17 OT DIIS     0.80E-01    1.5     0.00037909     -5780.9378717471 -1.81E-03
    18 OT DIIS     0.80E-01    1.5     0.00031308     -5781.3302666049 -3.92E-01
    19 OT DIIS     0.80E-01    1.5     0.00028037     -5781.5952971840 -2.65E-01
    20 OT DIIS     0.80E-01    1.5     0.00026504     -5781.6996702770 -1.04E-01
    21 OT DIIS     0.80E-01    1.5     0.00023178     -5781.9652740476 -2.66E-01
    22 OT SD       0.80E-01    1.5     0.00022679     -5782.0903994888 -1.25E-01
    23 OT DIIS     0.80E-01    1.5     0.00021952     -5782.1110516057 -2.07E-02
    24 OT DIIS     0.80E-01    1.5     0.00019277     -5782.3027474016 -1.92E-01
    25 OT DIIS     0.80E-01    1.5     0.00018975     -5782.3401081528 -3.74E-02
    26 OT DIIS     0.80E-01    1.5     0.00016974     -5782.4661519601 -1.26E-01
    27 OT DIIS     0.80E-01    1.5     0.00015184     -5782.5743764958 -1.08E-01
    28 OT DIIS     0.80E-01    1.5     0.00013347     -5782.6565601824 -8.22E-02
    29 OT DIIS     0.80E-01    1.5     0.00013044     -5782.6872605850 -3.07E-02
    30 OT DIIS     0.80E-01    1.5     0.00011736     -5782.7222549761 -3.50E-02
    31 OT DIIS     0.80E-01    1.5     0.00010859     -5782.7663019603 -4.40E-02
    32 OT DIIS     0.80E-01    1.5     0.00009623     -5782.8040585008 -3.78E-02
    33 OT DIIS     0.80E-01    1.5     0.00010323     -5782.8232827285 -1.92E-02
    34 OT DIIS     0.80E-01    1.5     0.00009335     -5782.8376673751 -1.44E-02
    35 OT DIIS     0.80E-01    1.5     0.00008732     -5782.8452932925 -7.63E-03
    36 OT DIIS     0.80E-01    1.5     0.00008435     -5782.8617102415 -1.64E-02
    37 OT DIIS     0.80E-01    1.5     0.00008071     -5782.8840903152 -2.24E-02
    38 OT DIIS     0.80E-01    1.5     0.00008006     -5782.8940029585 -9.91E-03
    39 OT DIIS     0.80E-01    1.5     0.00007895     -5782.8968573819 -2.85E-03
    40 OT DIIS     0.80E-01    1.5     0.00007768     -5782.9078084775 -1.10E-02

  Leaving inner SCF loop after reaching    40 steps.


  Electronic density on regular grids:      -1535.9999999999        0.0000000001
  Core density on regular grids:             1535.9999999995       -0.0000000005
  Total charge density on r-space grids:       -0.0000000004
  Total charge density g-space grids:          -0.0000000004

  Overlap energy of the core charge distribution:               0.00000000000385
  Self energy of the core charge distribution:             -12156.89556134359555
  Core Hamiltonian energy:                                   3259.51151086361187
  Hartree energy:                                            4031.05043809622202
  Exchange-correlation energy:                               -922.51114760334917

  DFT+U energy:                                                 5.93695150956991

  Total energy:                                             -5782.90780847753831

  outer SCF iter =    1 RMS gradient =   0.78E-04 energy =      -5782.9078084775

  ----------------------------------- OT ---------------------------------------
  Minimizer      : DIIS                : direct inversion
                                         in the iterative subspace
                                         using   7 DIIS vectors
                                         safer DIIS on
  Preconditioner : FULL_SINGLE_INVERSE : inversion of 
                                         H + eS - 2*(Sc)(c^T*H*c+const)(Sc)^T
  Precond_solver : DEFAULT
  stepsize       :    0.08000000                  energy_gap     :    0.08000000
  eps_taylor     :   0.10000E-15                  max_taylor     :             4
  ----------------------------------- OT ---------------------------------------

[...]
 flops    26 x    13 x    32          96401883136       0.0%    100.0%      0.0%     
 flops    13 x    26 x    32          96401883136       0.0%    100.0%      0.0%     
 flops    26 x    26 x    32          97908162560       0.0%    100.0%      0.0%     
 flops    96 x    32 x    32         114554830848       0.0%    100.0%      0.0%     
 flops    13 x    13 x    64         188553510912       0.0%    100.0%      0.0%     
 flops    26 x    13 x    64         192803766272       0.0%    100.0%      0.0%     
 flops    13 x    26 x    64         192803766272       0.0%    100.0%      0.0%     
 flops    26 x    26 x    64         195816325120       0.0%    100.0%      0.0%     
 flops    96 x    64 x    32         229109661696       0.0%    100.0%      0.0%     
 flops    96 x    32 x    64         229109661696       0.0%    100.0%      0.0%     
 flops   416 x    32 x    32         280045289472       0.0%    100.0%      0.0%     
 flops    96 x    64 x    64         458219323392       0.0%    100.0%      0.0%     
 flops   416 x    64 x    32         560090578944       0.0%    100.0%      0.0%     
 flops   416 x    32 x    64         560090578944       0.0%    100.0%      0.0%     
 flops    96 x    32 x   208         684491538432       0.0%    100.0%      0.0%     
 flops   416 x    32 x   208         779721113600       0.0%    100.0%      0.0%     
 flops   416 x    64 x    64        1120181157888       0.0%    100.0%      0.0%     
 flops    13 x    32 x    13        1183069655040       0.0%    100.0%      0.0%     
 flops    26 x    32 x    26        1220617961472       0.0%    100.0%      0.0%     
 flops    26 x    32 x    13        1220617961472       0.0%    100.0%      0.0%     
 flops    13 x    32 x    26        1220617961472       0.0%    100.0%      0.0%     
 flops    96 x    64 x   208        1370128121856       0.0%    100.0%      0.0%     
 flops   416 x    64 x   208        1565112926208       0.0%    100.0%      0.0%     
 flops inhomo. stacks                     2610448     100.0%      0.0%      0.0%
 flops total                        13.988894E+12       0.0%    100.0%      0.0%
 flops max/rank                    144.430478E+09       0.0%    100.0%      0.0%
 matmuls inhomo. stacks                      3784     100.0%      0.0%      0.0%
 matmuls total                          305428536       0.0%    100.0%      0.0%
 number of processed stacks               8664872       0.0%    100.0%      0.0%
 average stack size                                     1.0      35.3       0.0
 marketing flops                    15.223405E+12
 -------------------------------------------------------------------------------
 # multiplications                           4725
 max memory usage/rank             348.213248E+06
 # max total images/rank                        2
 # max 3D layers                                1
 # MPI messages exchanged                17539200
 MPI messages size (bytes):
  total size                         1.747142E+12
  min size                           0.000000E+00
  max size                         692.224000E+03
  average size                      99.613539E+03
 MPI breakdown and total messages size (bytes):
             size <=      128             5628704                   136224
       128 < size <=     8192              996608               6935416032
      8192 < size <=    32768             3557600              80890552048
     32768 < size <=   131072             3932928             300415897600
    131072 < size <=  4194304             3423360            1358921703360
   4194304 < size <= 16777216                   0                        0
  16777216 < size                               0                        0
 -------------------------------------------------------------------------------

 *** WARNING in dbcsr_mm.F:301 :: Using a non-square number of MPI ranks ***
 *** might lead to poor performance. Used ranks: 128 Suggested: 121 256  ***

 -------------------------------------------------------------------------------
 -                                                                             -
 -                      DBCSR MESSAGE PASSING PERFORMANCE                      -
 -                                                                             -
 -------------------------------------------------------------------------------
 ROUTINE             CALLS      AVE VOLUME [Bytes]
 MP_Bcast               50                     12.
 MP_Allreduce        24692                     26.
 MP_Alltoall         17083                  29632.
 MP_ISend           297624                  49391.
 MP_IRecv           297116                  48919.
 -------------------------------------------------------------------------------

 -------------------------------------------------------------------------------
 -                                                                             -
 -                                DBM STATISTICS                               -
 -                                                                             -
 -------------------------------------------------------------------------------
    M  x    N  x    K                                          COUNT     PERCENT
 -------------------------------------------------------------------------------

 -------------------------------------------------------------------------------
 -                                                                             -
 -                                GRID STATISTICS                              -
 -                                                                             -
 -------------------------------------------------------------------------------
 LP    KERNEL             BACKEND                              COUNT     PERCENT
 5     collocate ortho    CPU                               20698260      25.41%
 5     integrate ortho    CPU                               20384650      25.03%
 6     collocate ortho    CPU                               10576632      12.99%
 6     integrate ortho    CPU                               10416380      12.79%
 4     collocate ortho    CPU                                9447240      11.60%
 4     integrate ortho    CPU                                9304100      11.42%
 0     integrate general  CPU                                 393216       0.48%
 0     collocate general  CPU                                 221184       0.27%
 2     collocate ortho    CPU                                   2560       0.00%
 3     collocate ortho    CPU                                   1536       0.00%
 -------------------------------------------------------------------------------

 MEMORY| Estimated peak process memory [MiB]                                 333

 -------------------------------------------------------------------------------
 ----                             MULTIGRID INFO                            ----
 -------------------------------------------------------------------------------
 count for grid        1:        1287126          cutoff [a.u.]          300.00
 count for grid        2:         980954          cutoff [a.u.]          100.00
 count for grid        3:         793923          cutoff [a.u.]           33.33
 count for grid        4:         536872          cutoff [a.u.]           11.11
 total gridlevel count  :        3598875

 -------------------------------------------------------------------------------
 -                                                                             -
 -                         MESSAGE PASSING PERFORMANCE                         -
 -                                                                             -
 -------------------------------------------------------------------------------

 ROUTINE             CALLS      AVE VOLUME [Bytes]
 MP_Group                4
 MP_Bcast             8503                  19414.
 MP_Allreduce        22665                    454.
 MP_Sync               788
 MP_Alltoall          2720                2119806.
 MP_SendRecv         34544                  11544.
 MP_ISendRecv        33020                  11544.
 MP_Wait             49084
 MP_comm_split         252
 MP_ISend            29112                  77971.
 MP_IRecv            29052                  78128.
 MP_Write_All            6                 355816.
 -------------------------------------------------------------------------------


 -------------------------------------------------------------------------------
 -                                                                             -
 -                           R E F E R E N C E S                               -
 -                                                                             -
 -------------------------------------------------------------------------------
 
 CP2K version 2024.3, the CP2K developers group (2024).
 CP2K is freely available from https://www.cp2k.org/ .
 
 T. D. Kuehne, M. Iannuzzi, M. Del Ben, V. V. Rybkin, P. Seewald, F. Stein, T. 
 Laino, R. Z. Khaliullin, O. Schuett, F. Schiffmann, D. Golze, J. Wilhelm, S. 
 Chulkov, M. H. Bani-Hashemian, V. Weber, U. Borstnik, M. Taillefumier, A. S. 
 Jakobovits, A. Lazzaro, H. Pabst, T. Mueller, R. Schade, M. Guidon, S. 
 Andermatt, N. Holmberg, G. K. Schenter, A. Hehn, A. Bussy, F. Belleflamme, G. 
 Tabacchi, A. Gloess, M. Lass, I. Bethune, C. J. Mundy, C. Plessl, M. Watkins, 
 J. VandeVondele, M. Krack, J. Hutter.
 J. Chem. Phys. 152, 194103 (2020).
 CP2K: An electronic structure and molecular dynamics software package - 
 Quickstep: Efficient and accurate electronic structure calculations.
 https://doi.org/10.1063/5.0007045

 O. Schuett, P. Messmer, J. Hutter, J. VandeVondele.
 Electronic Structure Calculations on Graphics Processing Units, 173-190 (2016).
 GPU-Accelerated Sparse Matrix-Matrix Multiplication for Linear Scaling Density 
 Functional Theory.
 https://doi.org/10.1002/9781118670712.ch8

 A. Heinecke, G. Henry, M. Hutchinson, H. Pabst.
 Proceedings of Intl. Supercomputing Conference, 981-991 (2016).
 LIBXSMM: Accelerating Small Matrix Multiplications by Runtime Code Generation.
 https://doi.org/10.1109/SC.2016.83

 J. Hutter, M. Iannuzzi, F. Schiffmann, J. VandeVondele.
 WIREs Comput Mol Sci. 4, 15-25 (2014).
 CP2K: atomistic simulations of condensed matter systems.
 https://doi.org/10.1002/wcms.1159

 U. Borstnik, J. VandeVondele, V. Weber, J. Hutter.
 Parallel Comput. 40, 47-58 (2014).
 Sparse matrix multiplication: The distributed block-compressed sparse row 
 library.
 https://doi.org/10.1016/j.parco.2014.03.012

 A. Marek, V. Blum, R. Johanni, V. Havu, B. Lang, T. Auckenthaler, A. Heinecke, 
 H. Bungartz, H. Lederer.
 J. Phys. Condens. Matter 26, 213201 (2014).
 The ELPA library: scalable parallel eigenvalue solutions for electronic 
 structure theory and computational science.
 https://doi.org/10.1088/0953-8984/26/21/213201

 J. VandeVondele, J. Hutter.
 J. Chem. Phys. 127, 114105 (2007).
 Gaussian basis sets for accurate calculations on molecular systems in gas and 
 condensed phases.
 https://doi.org/10.1063/1.2770708

 J. VandeVondele, M. Krack, F. Mohamed, M. Parrinello, T. Chassaing, J. Hutter.
 Comput. Phys. Commun. 167, 103-128 (2005).
 QUICKSTEP: Fast and accurate density functional calculations using a mixed 
 Gaussian and plane waves approach.
 https://doi.org/10.1016/j.cpc.2004.12.014

 M. Krack.
 Theor. Chem. Acc. 114, 145-152 (2005).
 Pseudopotentials for H to Kr optimized for gradient-corrected 
 exchange-correlation functionals.
 https://doi.org/10.1007/s00214-005-0655-y

 M. Frigo, S. G. Johnson.
 Proc. IEEE 93, 216-231 (2005).
 The design and implementation of FFTW3.
 https://doi.org/10.1109/JPROC.2004.840301

 J. VandeVondele, J. Hutter.
 J. Chem. Phys. 118, 4365-4369 (2003).
 An efficient orbital transformation method for electronic structure 
 calculations.
 https://doi.org/10.1063/1.1543154

 C. Hartwigsen, S. Goedecker, J. Hutter.
 Phys. Rev. B 58, 3641-3662 (1998).
 Relativistic separable dual-space Gaussian pseudopotentials from H to Rn.
 https://doi.org/10.1103/PhysRevB.58.3641

 S. L. Dudarev, G. A. Botton, S. Y. Savrasov, C. J. Humphreys, A. P. Sutton.
 Phys. Rev. B 57, 1505-1509 (1998).
 Electron-energy-loss spectra and the structural stability of nickel oxide: An 
 LSDA+U study.
 https://doi.org/10.1103/PhysRevB.57.1505

 G. Lippert, J. Hutter, M. Parrinello.
 Mol. Phys. 92, 477-487 (1997).
 A hybrid Gaussian and plane wave density functional scheme.
 https://doi.org/10.1080/002689797170220

 S. L. Dudarev, D. N. Manh, A. P. Sutton.
 Philos. Mag. B 75, 613-628 (1997).
 Effect of Mott-Hubbard correlations on the electronic structure and structural 
 stability of uranium dioxide.
 https://doi.org/10.1080/13642819708202343

 S. Goedecker, M. Teter, J. Hutter.
 Phys. Rev. B 54, 1703-1710 (1996).
 Separable dual-space Gaussian pseudopotentials.
 https://doi.org/10.1103/PhysRevB.54.1703

 J. P. Perdew, K. Burke, M. Ernzerhof.
 Phys. Rev. Lett. 77, 3865-3868 (1996).
 Generalized gradient approximation made simple.
 https://doi.org/10.1103/PhysRevLett.77.3865


 -------------------------------------------------------------------------------
 -                                                                             -
 -                                T I M I N G                                  -
 -                                                                             -
 -------------------------------------------------------------------------------
 SUBROUTINE                       CALLS  ASD         SELF TIME        TOTAL TIME
                                MAXIMUM       AVERAGE  MAXIMUM  AVERAGE  MAXIMUM
 CP2K                                 1  1.0    0.156    0.168  109.861  109.865
 qs_energies                          1  2.0    0.005    0.008  108.844  108.849
 scf_env_do_scf                       1  3.0    0.004    0.007   97.374   97.376
 scf_env_do_scf_inner_loop           65  4.0    0.006    0.020   94.124   94.189
 qs_ks_update_qs_env                 67  5.0    0.001    0.002   46.381   46.498
 rebuild_ks_matrix                   65  6.0    0.002    0.003   46.291   46.408
 qs_ks_build_kohn_sham_matrix        65  7.0    0.018    0.021   46.289   46.406
 sum_up_and_integrate                65  8.0    0.004    0.006   29.183   29.200
 integrate_v_rspace                 130  9.0    0.006    0.008   29.102   29.146
 qs_rho_update_rho_low               66  5.0    0.001    0.002   26.997   27.007
 calculate_rho_elec                 132  6.0    0.049    0.056   26.996   27.007
 dbcsr_multiply_generic            4725  9.2    0.174    0.186   22.699   23.279
 qs_scf_new_mos                      65  5.0    0.000    0.001   22.405   22.574
 qs_scf_loop_do_ot                   65  6.0    0.001    0.002   22.405   22.574
 grid_integrate_task_list           130 10.0   20.773   21.904   20.773   21.904
 ot_scf_mini                         65  7.0    0.002    0.004   20.980   21.104
 grid_collocate_task_list           132  7.0   19.447   20.401   19.447   20.401
 multiply_cannon                   4725 10.2    0.750    0.805   15.034   17.354
 fft_wrap_pw1pw2                   2176 10.3    0.043    0.052   14.406   16.199
 multiply_cannon_loop              4725 11.2    0.338    0.370   13.039   15.229
 fft_wrap_pw1pw2_300               1378 11.8    0.544    0.609   13.380   15.189
 qs_vxc_create                       65  8.0    0.002    0.004   13.689   13.803
 xc_vxc_pw_create                    65  9.0    0.249    0.319   13.687   13.801
 fft3d_ps                          2176 12.3    4.300    4.771   11.350   13.456
 ot_mini                            195  6.7    0.006    0.007   11.716   11.874
 xc_pw_derive                       780 11.0    0.007    0.008    9.253   10.852
 multiply_cannon_multrec          75600 12.2    6.139    9.711    6.155    9.728
 mp_waitall_1                    565428 13.3    6.527    9.495    6.527    9.495
 qs_ot_get_p                        268  7.0    0.004    0.005    8.855    9.146
 scf_post_calculation_gpw             1  3.0    0.004    0.007    9.107    9.111
 mp_alltoall_z22v                  2176 14.3    5.853    9.095    5.853    9.095
 qs_ot_get_derivative               196  8.3    0.001    0.001    8.454    8.543
 multiply_cannon_metrocomm3       75600 12.2    0.184    0.205    4.501    7.973
 density_rs2pw                      132  7.0    0.010    0.012    6.808    7.675
 xc_rho_set_and_dset_create          65 10.0    0.222    0.347    7.106    7.493
 xc_pw_divergence                   130 10.0    0.003    0.004    6.115    7.372
 qs_ot_p2m_diag                     248  8.0    0.055    0.074    6.728    6.769
 potential_pw2rs                    130 10.0    0.011    0.013    6.631    6.680
 cp_dbcsr_syevd                     248  9.0    0.075    0.082    5.710    5.713
 qs_ot_get_derivative_diag          180  9.3    0.004    0.005    5.559    5.648
 yz_to_x                            793 13.4    0.337    0.471    3.339    5.459
 cp_fm_diag_elpa                    126 10.9    0.001    0.002    5.323    5.344
 cp_fm_redistribute_end             252 10.9    2.686    5.295    2.705    5.307
 cp_fm_diag_elpa_base               126 11.9    2.544    5.099    2.557    5.132
 make_lumo_gpw                        1  4.0    0.001    0.002    5.049    5.050
 ot_eigensolver                       2  5.0    0.003    0.004    5.030    5.031
 make_m2s                          9450 10.2    0.129    0.141    4.638    4.941
 transfer_pw2rs                     522 11.0    0.007    0.008    4.877    4.896
 transfer_rs2pw                     546  7.9    0.009    0.012    4.025    4.807
 mp_waitany                       12856 11.4    3.413    4.667    3.413    4.667
 x_to_yz                            851 13.7    0.565    0.743    3.378    4.325
 make_images                       9450 11.2    0.253    0.273    3.753    4.018
 transfer_pw2rs_300                 132 11.9    1.656    1.762    3.371    3.572
 transfer_rs2pw_300                 138  8.9    0.932    1.288    2.569    3.530
 mp_sum_l                         22928 10.2    2.026    3.511    2.026    3.511
 mp_alltoall_d11v                  3817 11.6    2.388    3.219    2.388    3.219
 init_scf_loop                        2  4.0    0.003    0.005    3.208    3.213
 write_available_results              1  4.0    0.002    0.003    3.137    3.140
 write_mo_free_results                1  5.0    0.141    0.147    3.096    3.099
 apply_preconditioner_dbcsr         204  9.3    0.001    0.002    2.576    2.902
 apply_single                       204 10.3    0.001    0.001    2.575    2.902
 ot_diis_step                        65  9.0    0.013    0.015    2.676    2.678
 rs_gather_matrices                 130 10.0    0.060    0.079    1.691    2.499
 multiply_cannon_metrocomm4       70875 12.2    0.181    0.205    0.853    2.428
 xc_functional_eval                  65 11.0    0.001    0.002    2.087    2.413
 pbe_lsd_eval                        65 12.0    2.085    2.411    2.085    2.411
 mp_irecv_dv                     157475 13.2    0.761    2.400    0.761    2.400
 -------------------------------------------------------------------------------

 The number of warnings for this run is : 3
 
 -------------------------------------------------------------------------------
  **** **** ******  **  PROGRAM ENDED AT                 2025-06-22 05:16:07.205
 ***** ** ***  *** **   PROGRAM RAN ON                                 nid004171
 **    ****   ******    PROGRAM RAN BY                                    cahart
 ***** **    ** ** **   PROGRAM PROCESS ID                                164696
  **** **  *******  **  PROGRAM STOPPED IN /mnt/lustre/a2fs-work2/work/e05/e05/c
                                           ahart/postdoc2/work/group/tio2/anatas
                                           e/cell-441/geo-opt/mp-390/neutral-fro
                                           m-hole/pbe-u-o/u-2.1
