 DBCSR| CPU Multiplication driver                                           XSMM (U)
 DBCSR| Multrec recursion limit                                              512 (U)
 DBCSR| Multiplication stack size                                           1000 (D)
 DBCSR| Maximum elements for images                                    UNLIMITED (U)
 DBCSR| Multiplicative factor virtual images                                   1 (U)
 DBCSR| Use multiplication densification                                       T (D)
 DBCSR| Multiplication size stacks                                             3 (U)
 DBCSR| Use memory pool for CPU allocation                                     F (U)
 DBCSR| Number of 3D layers                                               SINGLE (U)
 DBCSR| Use MPI memory allocation                                              F (U)
 DBCSR| Use RMA algorithm                                                      F (U)
 DBCSR| Use Communication thread                                               T (U)
 DBCSR| Communication thread load                                             87 (D)
 DBCSR| MPI: My process id                                                     0
 DBCSR| MPI: Number of processes                                             128
 DBCSR| OMP: Current number of threads                                         1
 DBCSR| OMP: Max number of threads                                             1
 DBCSR| Split modifier for TAS multiplication algorithm                  1.0E+00 (U)


  **** **** ******  **  PROGRAM STARTED AT               2025-06-16 15:58:21.088
 ***** ** ***  *** **   PROGRAM STARTED ON                             nid006721
 **    ****   ******    PROGRAM STARTED BY                                cahart
 ***** **    ** ** **   PROGRAM PROCESS ID                                124728
  **** **  *******  **  PROGRAM STARTED IN /mnt/lustre/a2fs-work2/work/e05/e05/c
                                           ahart/postdoc2/work/group/tio2/anatas
                                           e/cell-441/geo-opt/mp-390/hole/from-n
                                           eutral/pbe-u-o/u-6.0

 CP2K| version string:                                       CP2K version 2024.3
 CP2K| source code revision number:                                  git:6712648
 CP2K| cp2kflags: omp libint fftw3 libxc libgrpp elpa parallel scalapack cosma x
 CP2K|            smm plumed2 spglib mkl sirius libvori libbqb libvdwxc hdf5
 CP2K| is freely available from                            https://www.cp2k.org/
 CP2K| Program compiled at                       Thu 12 Sep 2024 10:20:47 AM BST
 CP2K| Program compiled on                                                  ln04
 CP2K| Program compiled for                                                local
 CP2K| Data directory path    /mnt/lustre/a2fs-work1/work/y07/shared/apps/core/c
 CP2K| Input file name                                                 input.inp

 GLOBAL| Force Environment number                                              1
 GLOBAL| Basis set file name                                        BASIS_MOLOPT
 GLOBAL| Potential file name                                      GTH_POTENTIALS
 GLOBAL| MM Potential file name                                     MM_POTENTIAL
 GLOBAL| Coordinate file name                                         system.xyz
 GLOBAL| Method name                                                        CP2K
 GLOBAL| Project name                                                       tio2
 GLOBAL| Run type                                                        GEO_OPT
 GLOBAL| FFT library                                                       FFTW3
 GLOBAL| Diagonalization library                                            ELPA
 GLOBAL| DGEMM library                                                      BLAS
 GLOBAL| Minimum number of eigenvectors for ELPA usage                        16
 GLOBAL| Orthonormality check for eigenvectors                          DISABLED
 GLOBAL| Matrix multiplication library                                     COSMA
 GLOBAL| All-to-all communication in single precision                          F
 GLOBAL| FFTs using library dependent lengths                                  F
 GLOBAL| Grid backend                                                       AUTO
 GLOBAL| Global print level                                               MEDIUM
 GLOBAL| MPI I/O enabled                                                       T
 GLOBAL| Total number of message passing processes                           128
 GLOBAL| Number of threads for this process                                    1
 GLOBAL| This output is from process                                           0
 GLOBAL| Stack size for threads created by OpenMP (OMP_STACKSIZE)        default
 GLOBAL| CPU model name                          AMD EPYC 7742 64-Core Processor
 GLOBAL| CPUID                                                              1002

 MEMORY| system memory details [Kb]
 MEMORY|                        rank 0           min           max       average
 MEMORY| MemTotal            263341976     263341976     263341976     263341976
 MEMORY| MemFree             233903548     233900776     233903548     233902646
 MEMORY| Buffers                     0             0             0             0
 MEMORY| Cached                2068860       2068860       2070688       2069454
 MEMORY| Slab                  6044984       6044984       6045152       6045039
 MEMORY| SReclaimable           906448        906448        906512        906468
 MEMORY| MemLikelyFree       236878856     236877840     236878856     236878570


 *** Fundamental physical constants (SI units) ***

 *** Literature: B. J. Mohr and B. N. Taylor,
 ***             CODATA recommended values of the fundamental physical
 ***             constants: 2006, Web Version 5.1
 ***             http://physics.nist.gov/constants

 Speed of light in vacuum [m/s]                             2.99792458000000E+08
 Magnetic constant or permeability of vacuum [N/A**2]       1.25663706143592E-06
 Electric constant or permittivity of vacuum [F/m]          8.85418781762039E-12
 Planck constant (h) [J*s]                                  6.62606896000000E-34
 Planck constant (h-bar) [J*s]                              1.05457162825177E-34
 Elementary charge [C]                                      1.60217648700000E-19
 Electron mass [kg]                                         9.10938215000000E-31
 Electron g factor [ ]                                     -2.00231930436220E+00
 Proton mass [kg]                                           1.67262163700000E-27
 Fine-structure constant                                    7.29735253760000E-03
 Rydberg constant [1/m]                                     1.09737315685270E+07
 Avogadro constant [1/mol]                                  6.02214179000000E+23
 Boltzmann constant [J/K]                                   1.38065040000000E-23
 Atomic mass unit [kg]                                      1.66053878200000E-27
 Bohr radius [m]                                            5.29177208590000E-11

 *** Conversion factors ***

 [u] -> [a.u.]                                              1.82288848426455E+03
 [Angstrom] -> [Bohr] = [a.u.]                              1.88972613288564E+00
 [a.u.] = [Bohr] -> [Angstrom]                              5.29177208590000E-01
 [a.u.] -> [s]                                              2.41888432650478E-17
 [a.u.] -> [fs]                                             2.41888432650478E-02
 [a.u.] -> [J]                                              4.35974393937059E-18
 [a.u.] -> [N]                                              8.23872205491840E-08
 [a.u.] -> [K]                                              3.15774647902944E+05
 [a.u.] -> [kJ/mol]                                         2.62549961709828E+03
 [a.u.] -> [kcal/mol]                                       6.27509468713739E+02
 [a.u.] -> [Pa]                                             2.94210107994716E+13
 [a.u.] -> [bar]                                            2.94210107994716E+08
 [a.u.] -> [atm]                                            2.90362800883016E+08
 [a.u.] -> [eV]                                             2.72113838565563E+01
 [a.u.] -> [Hz]                                             6.57968392072181E+15
 [a.u.] -> [1/cm] (wave numbers)                            2.19474631370540E+05
 [a.u./Bohr**2] -> [1/cm]                                   5.14048714338585E+03
 

 CELL_TOP| Volume [angstrom^3]:                                      2198.132028
 CELL_TOP| Vector a [angstrom    15.120     0.000     0.000   |a| =    15.120000
 CELL_TOP| Vector b [angstrom     0.000    15.120     0.000   |b| =    15.120000
 CELL_TOP| Vector c [angstrom     0.000     0.000     9.615   |c| =     9.615020
 CELL_TOP| Angle (b,c), alpha [degree]:                                90.000000
 CELL_TOP| Angle (a,c), beta  [degree]:                                90.000000
 CELL_TOP| Angle (a,b), gamma [degree]:                                90.000000
 CELL_TOP| Requested initial symmetry:                       MONOCLINIC_GAMMA_AB
 CELL_TOP| Numerically orthorhombic:                                         YES
 CELL_TOP| Periodicity                                                       XYZ

 *** WARNING in atoms_input.F:123 :: Overwriting coordinates. Active    ***
 *** coordinates read from &COORD section. Active coordinates READ from ***
 *** &COORD section                                                     ***


 GENERATE|  Preliminary Number of Bonds generated:                             0
 GENERATE|  Achieved consistency in connectivity generation.

 CELL| Volume [angstrom^3]:                                          2198.132028
 CELL| Vector a [angstrom]:      15.120     0.000     0.000   |a| =    15.120000
 CELL| Vector b [angstrom]:       0.000    15.120     0.000   |b| =    15.120000
 CELL| Vector c [angstrom]:       0.000     0.000     9.615   |c| =     9.615020
 CELL| Angle (b,c), alpha [degree]:                                    90.000000
 CELL| Angle (a,c), beta  [degree]:                                    90.000000
 CELL| Angle (a,b), gamma [degree]:                                    90.000000
 CELL| Requested initial symmetry:                           MONOCLINIC_GAMMA_AB
 CELL| Numerically orthorhombic:                                             YES
 CELL| Periodicity                                                           XYZ

 CELL_REF| Volume [angstrom^3]:                                      2198.132028
 CELL_REF| Vector a [angstrom    15.120     0.000     0.000   |a| =    15.120000
 CELL_REF| Vector b [angstrom     0.000    15.120     0.000   |b| =    15.120000
 CELL_REF| Vector c [angstrom     0.000     0.000     9.615   |c| =     9.615020
 CELL_REF| Angle (b,c), alpha [degree]:                                90.000000
 CELL_REF| Angle (a,c), beta  [degree]:                                90.000000
 CELL_REF| Angle (a,b), gamma [degree]:                                90.000000
 CELL_REF| Requested initial symmetry:                       MONOCLINIC_GAMMA_AB
 CELL_REF| Numerically orthorhombic:                                         YES
 CELL_REF| Periodicity                                                       XYZ

 *******************************************************************************
 *******************************************************************************
 **                                                                           **
 **     #####                         ##              ##                      **
 **    ##   ##            ##          ##              ##                      **
 **   ##     ##                       ##            ######                    **
 **   ##     ##  ##   ##  ##   #####  ##  ##   ####   ##    #####    #####    **
 **   ##     ##  ##   ##  ##  ##      ## ##   ##      ##   ##   ##  ##   ##   **
 **   ##  ## ##  ##   ##  ##  ##      ####     ###    ##   ######   ######    **
 **    ##  ###   ##   ##  ##  ##      ## ##      ##   ##   ##       ##        **
 **     #######   #####   ##   #####  ##  ##  ####    ##    #####   ##        **
 **           ##                                                    ##        **
 **                                                                           **
 **                                                ... make the atoms dance   **
 **                                                                           **
 **            Copyright (C) by CP2K developers group (2000-2024)             **
 **                      J. Chem. Phys. 152, 194103 (2020)                    **
 **                                                                           **
 *******************************************************************************

 DFT| Spin unrestricted (spin-polarized) Kohn-Sham calculation               UKS
 DFT| Multiplicity                                                             2
 DFT| Number of spin states                                                    2
 DFT| Charge                                                                   1
 DFT| Self-interaction correction (SIC)                                       NO
 DFT| Cutoffs: density                                              1.000000E-10
 DFT|          gradient                                             1.000000E-10
 DFT|          tau                                                  1.000000E-10
 DFT|          cutoff_smoothing_range                               0.000000E+00
 DFT| XC density smoothing                                                  NONE
 DFT| XC derivatives                                                          PW

 DFT+U| Method                                                          MULLIKEN
 DFT+U| Check atomic kind information for details

 FUNCTIONAL| PBE:
 FUNCTIONAL| J.P.Perdew, K.Burke, M.Ernzerhof, Phys. Rev. Letter, vol. 77, n 18,
 FUNCTIONAL|  pp. 3865-3868, (1996) {spin polarized}                            


 QS| Method:                                                                 GPW
 QS| Density plane wave grid type                        NON-SPHERICAL FULLSPACE
 QS| Number of grid levels:                                                    4
 QS| Density cutoff [a.u.]:                                                300.0
 QS| Multi grid cutoff [a.u.]: 1) grid level                               300.0
 QS|                           2) grid level                               100.0
 QS|                           3) grid level                                33.3
 QS|                           4) grid level                                11.1
 QS| Grid level progression factor:                                          3.0
 QS| Relative density cutoff [a.u.]:                                        20.0
 QS| Interaction thresholds: eps_pgf_orb:                                1.0E-06
 QS|                         eps_filter_matrix:                          0.0E+00
 QS|                         eps_core_charge:                            1.0E-14
 QS|                         eps_rho_gspace:                             1.0E-12
 QS|                         eps_rho_rspace:                             1.0E-12
 QS|                         eps_gvg_rspace:                             1.0E-06
 QS|                         eps_ppl:                                    1.0E-02
 QS|                         eps_ppnl:                                   1.0E-08


 ATOMIC KIND INFORMATION

  1. Atomic kind: Ti                                    Number of atoms:      64

     Orbital Basis Set                                    DZVP-MOLOPT-SR-GTH-q12

       Number of orbital shell sets:                                           1
       Number of orbital shells:                                               8
       Number of primitive Cartesian functions:                                6
       Number of Cartesian basis functions:                                   31
       Number of spherical basis functions:                                   26
       Norm type:                                                              2

       Normalised Cartesian orbitals:

                        Set   Shell   Orbital            Exponent    Coefficient

                          1       1    2s                7.884570       0.015554
                                                         3.894698       0.963603
                                                         1.513589      -0.631435
                                                         0.596768      -0.343022
                                                         0.222222      -0.006534
                                                         0.077078       0.007652

                          1       2    3s                7.884570      -0.009340
                                                         3.894698       0.212624
                                                         1.513589      -0.258368
                                                         0.596768      -0.226206
                                                         0.222222       0.039438
                                                         0.077078       0.107179

                          1       3    4s                7.884570       0.276563
                                                         3.894698       0.105452
                                                         1.513589       0.085149
                                                         0.596768       0.882541
                                                         0.222222      -0.696223
                                                         0.077078       0.156638

                          1       4    3px               7.884570      -2.034794
                                                         3.894698       0.782008
                                                         1.513589       1.253903
                                                         0.596768       0.347823
                                                         0.222222       0.016778
                                                         0.077078      -0.000433
                          1       4    3py               7.884570      -2.034794
                                                         3.894698       0.782008
                                                         1.513589       1.253903
                                                         0.596768       0.347823
                                                         0.222222       0.016778
                                                         0.077078      -0.000433
                          1       4    3pz               7.884570      -2.034794
                                                         3.894698       0.782008
                                                         1.513589       1.253903
                                                         0.596768       0.347823
                                                         0.222222       0.016778
                                                         0.077078      -0.000433

                          1       5    4px               7.884570       0.376572
                                                         3.894698      -0.182875
                                                         1.513589      -0.474776
                                                         0.596768      -0.081757
                                                         0.222222       0.064432
                                                         0.077078       0.047279
                          1       5    4py               7.884570       0.376572
                                                         3.894698      -0.182875
                                                         1.513589      -0.474776
                                                         0.596768      -0.081757
                                                         0.222222       0.064432
                                                         0.077078       0.047279
                          1       5    4pz               7.884570       0.376572
                                                         3.894698      -0.182875
                                                         1.513589      -0.474776
                                                         0.596768      -0.081757
                                                         0.222222       0.064432
                                                         0.077078       0.047279

                          1       6    4dx2              7.884570       3.047350
                                                         3.894698       3.289529
                                                         1.513589       1.060616
                                                         0.596768       0.249930
                                                         0.222222       0.038806
                                                         0.077078       0.002319
                          1       6    4dxy              7.884570       5.278165
                                                         3.894698       5.697631
                                                         1.513589       1.837041
                                                         0.596768       0.432892
                                                         0.222222       0.067214
                                                         0.077078       0.004017
                          1       6    4dxz              7.884570       5.278165
                                                         3.894698       5.697631
                                                         1.513589       1.837041
                                                         0.596768       0.432892
                                                         0.222222       0.067214
                                                         0.077078       0.004017
                          1       6    4dy2              7.884570       3.047350
                                                         3.894698       3.289529
                                                         1.513589       1.060616
                                                         0.596768       0.249930
                                                         0.222222       0.038806
                                                         0.077078       0.002319
                          1       6    4dyz              7.884570       5.278165
                                                         3.894698       5.697631
                                                         1.513589       1.837041
                                                         0.596768       0.432892
                                                         0.222222       0.067214
                                                         0.077078       0.004017
                          1       6    4dz2              7.884570       3.047350
                                                         3.894698       3.289529
                                                         1.513589       1.060616
                                                         0.596768       0.249930
                                                         0.222222       0.038806
                                                         0.077078       0.002319

                          1       7    5dx2              7.884570      -2.119015
                                                         3.894698      -1.237751
                                                         1.513589      -0.746777
                                                         0.596768      -0.071514
                                                         0.222222       0.004086
                                                         0.077078       0.017595
                          1       7    5dxy              7.884570      -3.670241
                                                         3.894698      -2.143848
                                                         1.513589      -1.293455
                                                         0.596768      -0.123865
                                                         0.222222       0.007077
                                                         0.077078       0.030475
                          1       7    5dxz              7.884570      -3.670241
                                                         3.894698      -2.143848
                                                         1.513589      -1.293455
                                                         0.596768      -0.123865
                                                         0.222222       0.007077
                                                         0.077078       0.030475
                          1       7    5dy2              7.884570      -2.119015
                                                         3.894698      -1.237751
                                                         1.513589      -0.746777
                                                         0.596768      -0.071514
                                                         0.222222       0.004086
                                                         0.077078       0.017595
                          1       7    5dyz              7.884570      -3.670241
                                                         3.894698      -2.143848
                                                         1.513589      -1.293455
                                                         0.596768      -0.123865
                                                         0.222222       0.007077
                                                         0.077078       0.030475
                          1       7    5dz2              7.884570      -2.119015
                                                         3.894698      -1.237751
                                                         1.513589      -0.746777
                                                         0.596768      -0.071514
                                                         0.222222       0.004086
                                                         0.077078       0.017595

                          1       8    5fx3              7.884570      -0.342058
                                                         3.894698       0.375798
                                                         1.513589      -0.706469
                                                         0.596768      -0.229994
                                                         0.222222      -0.012723
                                                         0.077078       0.003932
                          1       8    5fx2y             7.884570      -0.764866
                                                         3.894698       0.840310
                                                         1.513589      -1.579712
                                                         0.596768      -0.514282
                                                         0.222222      -0.028450
                                                         0.077078       0.008792
                          1       8    5fx2z             7.884570      -0.764866
                                                         3.894698       0.840310
                                                         1.513589      -1.579712
                                                         0.596768      -0.514282
                                                         0.222222      -0.028450
                                                         0.077078       0.008792
                          1       8    5fxy2             7.884570      -0.764866
                                                         3.894698       0.840310
                                                         1.513589      -1.579712
                                                         0.596768      -0.514282
                                                         0.222222      -0.028450
                                                         0.077078       0.008792
                          1       8    5fxyz             7.884570      -1.324787
                                                         3.894698       1.455460
                                                         1.513589      -2.736142
                                                         0.596768      -0.890763
                                                         0.222222      -0.049276
                                                         0.077078       0.015229
                          1       8    5fxz2             7.884570      -0.764866
                                                         3.894698       0.840310
                                                         1.513589      -1.579712
                                                         0.596768      -0.514282
                                                         0.222222      -0.028450
                                                         0.077078       0.008792
                          1       8    5fy3              7.884570      -0.342058
                                                         3.894698       0.375798
                                                         1.513589      -0.706469
                                                         0.596768      -0.229994
                                                         0.222222      -0.012723
                                                         0.077078       0.003932
                          1       8    5fy2z             7.884570      -0.764866
                                                         3.894698       0.840310
                                                         1.513589      -1.579712
                                                         0.596768      -0.514282
                                                         0.222222      -0.028450
                                                         0.077078       0.008792
                          1       8    5fyz2             7.884570      -0.764866
                                                         3.894698       0.840310
                                                         1.513589      -1.579712
                                                         0.596768      -0.514282
                                                         0.222222      -0.028450
                                                         0.077078       0.008792
                          1       8    5fz3              7.884570      -0.342058
                                                         3.894698       0.375798
                                                         1.513589      -0.706469
                                                         0.596768      -0.229994
                                                         0.222222      -0.012723
                                                         0.077078       0.003932

       Atomic covalent radius [Angstrom]:                                  1.320

       Atomic van der Waals radius [Angstrom]:                             1.760

     GTH Potential information for                                   GTH-PBE-q12

       Description:                       Goedecker-Teter-Hutter pseudopotential
                                           Goedecker et al., PRB 54, 1703 (1996)
                                          Hartwigsen et al., PRB 58, 3641 (1998)
                                                      Krack, TCA 114, 145 (2005)

       Gaussian exponent of the core charge distribution:               3.462604
       Electronic configuration (s p d ...):                           4   6   2

       Parameters of the local part of the GTH pseudopotential:

                          rloc        C1          C2          C3          C4
                        0.380000    8.711442   -0.700287

       Parameters of the non-local part of the GTH pseudopotential:

                   l      r(l)      h(i,j,l)

                   0    0.337771    2.575264    3.692971
                                    3.692971   -4.767605
                   1    0.242531   -4.630541    8.870875
                                    8.870875  -10.496161
                   2    0.243317   -9.406653

  2. Atomic kind: O                                     Number of atoms:     128

     Orbital Basis Set                                     DZVP-MOLOPT-SR-GTH-q6

       Number of orbital shell sets:                                           1
       Number of orbital shells:                                               5
       Number of primitive Cartesian functions:                                5
       Number of Cartesian basis functions:                                   14
       Number of spherical basis functions:                                   13
       Norm type:                                                              2

       Normalised Cartesian orbitals:

                        Set   Shell   Orbital            Exponent    Coefficient

                          1       1    2s               10.389228       0.396646
                                                         3.849621       0.208811
                                                         1.388401      -0.301641
                                                         0.496955      -0.274061
                                                         0.162492      -0.033677

                          1       2    3s               10.389228       0.303673
                                                         3.849621       0.240943
                                                         1.388401      -0.313066
                                                         0.496955      -0.043055
                                                         0.162492       0.213991

                          1       3    3px              10.389228      -1.530415
                                                         3.849621      -1.371928
                                                         1.388401      -0.761951
                                                         0.496955      -0.253695
                                                         0.162492      -0.035541
                          1       3    3py              10.389228      -1.530415
                                                         3.849621      -1.371928
                                                         1.388401      -0.761951
                                                         0.496955      -0.253695
                                                         0.162492      -0.035541
                          1       3    3pz              10.389228      -1.530415
                                                         3.849621      -1.371928
                                                         1.388401      -0.761951
                                                         0.496955      -0.253695
                                                         0.162492      -0.035541

                          1       4    4px              10.389228      -0.565392
                                                         3.849621      -0.038231
                                                         1.388401      -0.382373
                                                         0.496955       0.179070
                                                         0.162492       0.122714
                          1       4    4py              10.389228      -0.565392
                                                         3.849621      -0.038231
                                                         1.388401      -0.382373
                                                         0.496955       0.179070
                                                         0.162492       0.122714
                          1       4    4pz              10.389228      -0.565392
                                                         3.849621      -0.038231
                                                         1.388401      -0.382373
                                                         0.496955       0.179070
                                                         0.162492       0.122714

                          1       5    4dx2             10.389228       1.867377
                                                         3.849621       0.670994
                                                         1.388401       1.353441
                                                         0.496955       0.273538
                                                         0.162492       0.006620
                          1       5    4dxy             10.389228       3.234392
                                                         3.849621       1.162195
                                                         1.388401       2.344229
                                                         0.496955       0.473781
                                                         0.162492       0.011466
                          1       5    4dxz             10.389228       3.234392
                                                         3.849621       1.162195
                                                         1.388401       2.344229
                                                         0.496955       0.473781
                                                         0.162492       0.011466
                          1       5    4dy2             10.389228       1.867377
                                                         3.849621       0.670994
                                                         1.388401       1.353441
                                                         0.496955       0.273538
                                                         0.162492       0.006620
                          1       5    4dyz             10.389228       3.234392
                                                         3.849621       1.162195
                                                         1.388401       2.344229
                                                         0.496955       0.473781
                                                         0.162492       0.011466
                          1       5    4dz2             10.389228       1.867377
                                                         3.849621       0.670994
                                                         1.388401       1.353441
                                                         0.496955       0.273538
                                                         0.162492       0.006620

       Atomic covalent radius [Angstrom]:                                  0.730

       Atomic van der Waals radius [Angstrom]:                             1.520

     GTH Potential information for                                    GTH-PBE-q6

       Description:                       Goedecker-Teter-Hutter pseudopotential
                                           Goedecker et al., PRB 54, 1703 (1996)
                                          Hartwigsen et al., PRB 58, 3641 (1998)
                                                      Krack, TCA 114, 145 (2005)

       Gaussian exponent of the core charge distribution:               8.360253
       Electronic configuration (s p d ...):                               2   4

       Parameters of the local part of the GTH pseudopotential:

                          rloc        C1          C2          C3          C4
                        0.244554  -16.667215    2.487311

       Parameters of the non-local part of the GTH pseudopotential:

                   l      r(l)      h(i,j,l)

                   0    0.220956   18.337458
                   1    0.211332

     A DFT+U correction is applied to atoms of this atomic kind:
       Angular quantum momentum number L:                                      1
       U(eff) = (U - J) value in [eV]:                                     6.000


 MOLECULE KIND INFORMATION


 All atoms are their own molecule, skipping detailed information


 TOTAL NUMBERS AND MAXIMUM NUMBERS

  Total number of            - Atomic kinds:                                   2
                             - Atoms:                                        192
                             - Shell sets:                                   192
                             - Shells:                                      1152
                             - Primitive Cartesian functions:               1024
                             - Cartesian basis functions:                   3776
                             - Spherical basis functions:                   3328

  Maximum angular momentum of- Orbital basis functions:                        3
                             - Local part of the GTH pseudopotential:          2
                             - Non-local part of the GTH pseudopotential:      3


 MODULE QUICKSTEP: ATOMIC COORDINATES IN ANGSTROM

   Atom Kind Element         X             Y             Z       Z(eff)     Mass
      1    1 Ti   22      0.000925      0.000925      0.000001  12.0000  47.8670
      2    1 Ti   22      1.888239      1.888241      4.807510  12.0000  47.8670
      3    1 Ti   22      0.000898      1.888268      2.401887  12.0000  47.8670
      4    1 Ti   22      1.888271      0.000895      7.213134  12.0000  47.8670
      5    1 Ti   22      0.000896      3.776169      0.002541  12.0000  47.8670
      6    1 Ti   22      1.888274     13.237697      4.805609  12.0000  47.8670
      7    1 Ti   22     11.350414      1.888243      2.403696  12.0000  47.8670
      8    1 Ti   22      5.668395      0.000860      7.217350  12.0000  47.8670
      9    1 Ti   22      1.888221      3.776138      7.210547  12.0000  47.8670
     10    1 Ti   22      0.000922     13.237676      2.403799  12.0000  47.8670
     11    1 Ti   22      5.668395      1.888216      4.803311  12.0000  47.8670
     12    1 Ti   22     11.350387      0.000901     -0.001815  12.0000  47.8670
     13    1 Ti   22      3.776169      0.000904     -0.002539  12.0000  47.8670
     14    1 Ti   22     13.237697      1.888269      4.809414  12.0000  47.8670
     15    1 Ti   22     13.237679      0.000918      7.211225  12.0000  47.8670
     16    1 Ti   22      3.776142      1.888227      2.404474  12.0000  47.8670
     17    1 Ti   22      1.888216      5.668398      4.811709  12.0000  47.8670
     18    1 Ti   22      0.000899     11.350390      0.001815  12.0000  47.8670
     19    1 Ti   22      0.000861      5.668394      2.397669  12.0000  47.8670
     20    1 Ti   22      1.888245     11.350411      7.211330  12.0000  47.8670
     21    1 Ti   22      0.000867      7.570441      0.006055  12.0000  47.8670
     22    1 Ti   22      1.888223      9.462613      4.808149  12.0000  47.8670
     23    1 Ti   22      7.570439      1.888222      2.407922  12.0000  47.8670
     24    1 Ti   22      9.462588      0.000890      7.213724  12.0000  47.8670
     25    1 Ti   22      1.888219      7.570433      7.207100  12.0000  47.8670
     26    1 Ti   22      0.000895      9.462586      2.401298  12.0000  47.8670
     27    1 Ti   22      9.462612      1.888226      4.806877  12.0000  47.8670
     28    1 Ti   22      7.570438      0.000871     -0.006056  12.0000  47.8670
     29    1 Ti   22      3.776120      3.776126     -0.000002  12.0000  47.8670
     30    1 Ti   22     13.237681     13.237677      4.807513  12.0000  47.8670
     31    1 Ti   22     11.350427      5.668397      2.399504  12.0000  47.8670
     32    1 Ti   22      5.668401     11.350424      7.215517  12.0000  47.8670
     33    1 Ti   22     13.237693      3.776164      7.208689  12.0000  47.8670
     34    1 Ti   22      3.776166     13.237697      2.406333  12.0000  47.8670
     35    1 Ti   22      5.668256      5.668261      4.807510  12.0000  47.8670
     36    1 Ti   22     11.350415     11.350418      0.000002  12.0000  47.8670
     37    1 Ti   22     11.350387     13.237699      2.405609  12.0000  47.8670
     38    1 Ti   22      5.668338      3.776111      7.214800  12.0000  47.8670
     39    1 Ti   22      3.776150     11.350436     -0.000772  12.0000  47.8670
     40    1 Ti   22     13.237724      5.668394      4.813634  12.0000  47.8670
     41    1 Ti   22      5.668398     13.237723      4.801388  12.0000  47.8670
     42    1 Ti   22     11.350425      3.776148      0.000775  12.0000  47.8670
     43    1 Ti   22     13.237698     11.350379      7.209415  12.0000  47.8670
     44    1 Ti   22      3.776110      5.668340      2.400216  12.0000  47.8670
     45    1 Ti   22      3.776119      7.570490      0.003506  12.0000  47.8670
     46    1 Ti   22     13.237694      9.462584      4.810005  12.0000  47.8670
     47    1 Ti   22      7.570552      5.668261      2.403731  12.0000  47.8670
     48    1 Ti   22      9.462610     11.350420      7.211956  12.0000  47.8670
     49    1 Ti   22     13.237724      7.570433      7.205177  12.0000  47.8670
     50    1 Ti   22      3.776116      9.462627      2.403838  12.0000  47.8670
     51    1 Ti   22      9.462626      5.668343      4.811140  12.0000  47.8670
     52    1 Ti   22      7.570440     11.350436     -0.004217  12.0000  47.8670
     53    1 Ti   22     11.350425      9.462609      2.403062  12.0000  47.8670
     54    1 Ti   22      5.668261      7.570550      7.211293  12.0000  47.8670
     55    1 Ti   22      5.668340      9.462627      4.803881  12.0000  47.8670
     56    1 Ti   22     11.350428      7.570438      0.004221  12.0000  47.8670
     57    1 Ti   22      9.462624      3.776115      7.211184  12.0000  47.8670
     58    1 Ti   22      7.570438     13.237730      2.409847  12.0000  47.8670
     59    1 Ti   22      7.570479      3.776122     -0.003505  12.0000  47.8670
     60    1 Ti   22      9.462587     13.237696      4.805018  12.0000  47.8670
     61    1 Ti   22      7.570550      7.570553      0.000003  12.0000  47.8670
     62    1 Ti   22      9.462625      9.462625      4.807508  12.0000  47.8670
     63    1 Ti   22      7.570479      9.462627      2.407344  12.0000  47.8670
     64    1 Ti   22      9.462623      7.570479      7.207677  12.0000  47.8670
     65    2 O     8      0.000651      0.001478      1.984082   6.0000  15.9994
     66    2 O     8      1.884851      1.887454      6.791438   6.0000  15.9994
     67    2 O     8      0.001461      1.884839      4.387892   6.0000  15.9994
     68    2 O     8      1.887477      0.000652      9.195090   6.0000  15.9994
     69    2 O     8      1.884839      0.001461      5.227133   6.0000  15.9994
     70    2 O     8      0.000652      1.887477      0.419933   6.0000  15.9994
     71    2 O     8      1.887453      1.884850      2.823586   6.0000  15.9994
     72    2 O     8      0.001478      0.000652      7.630941   6.0000  15.9994
     73    2 O     8      0.000664      3.775880      1.980339   6.0000  15.9994
     74    2 O     8      1.884840     13.237083      6.791645   6.0000  15.9994
     75    2 O     8     11.351151      1.884849      4.387747   6.0000  15.9994
     76    2 O     8      5.672407      0.000618      9.197102   6.0000  15.9994
     77    2 O     8      1.884878      3.775831      5.230777   6.0000  15.9994
     78    2 O     8      0.000652     13.237068      0.419688   6.0000  15.9994
     79    2 O     8      5.672370      1.884834      2.821750   6.0000  15.9994
     80    2 O     8     11.351129      0.000651      7.631123   6.0000  15.9994
     81    2 O     8      3.775881      0.000666      7.634681   6.0000  15.9994
     82    2 O     8     13.237082      1.884840      2.823379   6.0000  15.9994
     83    2 O     8     13.237069      0.000651      9.195333   6.0000  15.9994
     84    2 O     8      3.775831      1.884879      4.384242   6.0000  15.9994
     85    2 O     8      1.884834      5.672371      6.793271   6.0000  15.9994
     86    2 O     8      0.000651     11.351129      1.983901   6.0000  15.9994
     87    2 O     8      0.000619      5.672406      0.417917   6.0000  15.9994
     88    2 O     8      1.884848     11.351152      5.227277   6.0000  15.9994
     89    2 O     8      0.000618      7.566522      1.985916   6.0000  15.9994
     90    2 O     8      1.884878      9.462853      6.788118   6.0000  15.9994
     91    2 O     8      7.566565      1.884835      4.389601   6.0000  15.9994
     92    2 O     8      9.462805      0.000664      9.191719   6.0000  15.9994
     93    2 O     8      1.884833      7.566565      5.225420   6.0000  15.9994
     94    2 O     8      0.000664      9.462804      0.423302   6.0000  15.9994
     95    2 O     8      9.462852      1.884879      2.826905   6.0000  15.9994
     96    2 O     8      7.566523      0.000619      7.629106   6.0000  15.9994
     97    2 O     8      3.769400      0.001444      1.984928   6.0000  15.9994
     98    2 O     8     13.237835      1.887479      6.791315   6.0000  15.9994
     99    2 O     8      0.001434      5.655194      4.388191   6.0000  15.9994
    100    2 O     8      1.887455     11.353691      9.195201   6.0000  15.9994
    101    2 O     8     13.237835      0.001479      5.227199   6.0000  15.9994
    102    2 O     8      3.769450      1.887448      0.419130   6.0000  15.9994
    103    2 O     8      1.887435      5.655300      2.823376   6.0000  15.9994
    104    2 O     8      0.001462     11.353704      7.630888   6.0000  15.9994
    105    2 O     8     11.353691      1.887454      0.419824   6.0000  15.9994
    106    2 O     8      5.655201      0.001435      5.226828   6.0000  15.9994
    107    2 O     8      5.655296      1.887436      6.791643   6.0000  15.9994
    108    2 O     8     11.353705      0.001462      1.984136   6.0000  15.9994
    109    2 O     8      1.887447      3.769450      9.195889   6.0000  15.9994
    110    2 O     8      0.001479     13.237834      4.387822   6.0000  15.9994
    111    2 O     8      0.001444      3.769401      7.630090   6.0000  15.9994
    112    2 O     8      1.887478     13.237835      2.823706   6.0000  15.9994
    113    2 O     8      3.769460      3.775818      1.981250   6.0000  15.9994
    114    2 O     8     13.237835     13.237068      6.791566   6.0000  15.9994
    115    2 O     8     11.351163      5.655290      4.387962   6.0000  15.9994
    116    2 O     8      5.672372     11.353707      9.197029   6.0000  15.9994
    117    2 O     8     13.237822      3.775882      5.230938   6.0000  15.9994
    118    2 O     8      3.769404     13.237095      0.418831   6.0000  15.9994
    119    2 O     8      5.672382      5.655221      2.821308   6.0000  15.9994
    120    2 O     8     11.351149     11.353695      7.631024   6.0000  15.9994
    121    2 O     8     11.353703     13.237081      0.419625   6.0000  15.9994
    122    2 O     8      5.655288      3.775809      5.230530   6.0000  15.9994
    123    2 O     8      3.775834     11.353663      7.634533   6.0000  15.9994
    124    2 O     8     13.237103      5.655203      2.823074   6.0000  15.9994
    125    2 O     8      5.655201     13.237104      6.791944   6.0000  15.9994
    126    2 O     8     11.353662      3.775833      1.980489   6.0000  15.9994
    127    2 O     8     13.237080     11.353703      9.195400   6.0000  15.9994
    128    2 O     8      3.775805      5.655287      4.384494   6.0000  15.9994
    129    2 O     8      5.655222      5.672389      6.793716   6.0000  15.9994
    130    2 O     8     11.353694     11.351150      1.983999   6.0000  15.9994
    131    2 O     8     13.237096      3.769402      9.196190   6.0000  15.9994
    132    2 O     8      3.775881     13.237823      4.384081   6.0000  15.9994
    133    2 O     8     11.353706      5.672371      0.417993   6.0000  15.9994
    134    2 O     8      5.655295     11.351163      5.227059   6.0000  15.9994
    135    2 O     8      3.775820      3.769463      7.633770   6.0000  15.9994
    136    2 O     8     13.237067     13.237834      2.823456   6.0000  15.9994
    137    2 O     8     13.237836     11.351128      5.227387   6.0000  15.9994
    138    2 O     8      3.769419      5.672362      0.417203   6.0000  15.9994
    139    2 O     8      5.672408     13.237868      2.821688   6.0000  15.9994
    140    2 O     8     11.351152      3.769445      7.630328   6.0000  15.9994
    141    2 O     8      3.769445     11.351154      1.984694   6.0000  15.9994
    142    2 O     8     13.237867      5.672408      6.793333   6.0000  15.9994
    143    2 O     8     11.351128     13.237835      4.387637   6.0000  15.9994
    144    2 O     8      5.672361      3.769421      9.197820   6.0000  15.9994
    145    2 O     8      3.769422      7.566562      1.986641   6.0000  15.9994
    146    2 O     8     13.237823      9.462804      6.787952   6.0000  15.9994
    147    2 O     8      7.566527      5.655222      4.390059   6.0000  15.9994
    148    2 O     8      9.462848     11.353663      9.191877   6.0000  15.9994
    149    2 O     8     13.237868      7.566524      5.225365   6.0000  15.9994
    150    2 O     8      3.769466      9.462854      0.422395   6.0000  15.9994
    151    2 O     8      9.462858      5.655296      2.826674   6.0000  15.9994
    152    2 O     8      7.566562     11.353706      7.629172   6.0000  15.9994
    153    2 O     8     11.353663      9.462848      0.423148   6.0000  15.9994
    154    2 O     8      5.655226      7.566532      5.224963   6.0000  15.9994
    155    2 O     8      5.655292      9.462862      6.788348   6.0000  15.9994
    156    2 O     8     11.353706      7.566560      1.985850   6.0000  15.9994
    157    2 O     8      9.462854      3.769466      9.192629   6.0000  15.9994
    158    2 O     8      7.566522     13.237868      4.389659   6.0000  15.9994
    159    2 O     8      7.566559      3.769423      7.628380   6.0000  15.9994
    160    2 O     8      9.462803     13.237823      2.827075   6.0000  15.9994
    161    2 O     8      7.583399      0.001434      1.984447   6.0000  15.9994
    162    2 O     8      9.469117      1.887450      6.792107   6.0000  15.9994
    163    2 O     8      0.001445      9.469165      4.388657   6.0000  15.9994
    164    2 O     8      1.887435      7.583309      9.195407   6.0000  15.9994
    165    2 O     8      9.469165      0.001445      5.226368   6.0000  15.9994
    166    2 O     8      7.583302      1.887435      0.419613   6.0000  15.9994
    167    2 O     8      1.887448      9.469117      2.822919   6.0000  15.9994
    168    2 O     8      0.001434      7.583393      7.630573   6.0000  15.9994
    169    2 O     8      7.583305      3.775807      1.980747   6.0000  15.9994
    170    2 O     8      9.469162     13.237096      6.792408   6.0000  15.9994
    171    2 O     8     11.351152      9.469123      4.388417   6.0000  15.9994
    172    2 O     8      5.672382      7.583368      9.197462   6.0000  15.9994
    173    2 O     8      9.469108      3.775821      5.230051   6.0000  15.9994
    174    2 O     8      7.583399     13.237104      0.419311   6.0000  15.9994
    175    2 O     8      5.672362      9.469149      2.820979   6.0000  15.9994
    176    2 O     8     11.351163      7.583303      7.630808   6.0000  15.9994
    177    2 O     8      3.775809      7.583301      7.634276   6.0000  15.9994
    178    2 O     8     13.237096      9.469162      2.822617   6.0000  15.9994
    179    2 O     8     13.237105      7.583402      9.195709   6.0000  15.9994
    180    2 O     8      3.775821      9.469109      4.384974   6.0000  15.9994
    181    2 O     8      9.469148      5.672366      6.794040   6.0000  15.9994
    182    2 O     8      7.583307     11.351163      1.984214   6.0000  15.9994
    183    2 O     8      7.583365      5.672381      0.417561   6.0000  15.9994
    184    2 O     8      9.469122     11.351153      5.226607   6.0000  15.9994
    185    2 O     8      7.583361      7.566526      1.986293   6.0000  15.9994
    186    2 O     8      9.469102      9.462854      6.788841   6.0000  15.9994
    187    2 O     8      7.566561      9.469148      4.390367   6.0000  15.9994
    188    2 O     8      9.462859      7.583301      9.192117   6.0000  15.9994
    189    2 O     8      9.469145      7.566563      5.224651   6.0000  15.9994
    190    2 O     8      7.583299      9.462857      0.422907   6.0000  15.9994
    191    2 O     8      9.462854      9.469103      2.826178   6.0000  15.9994
    192    2 O     8      7.566529      7.583361      7.628731   6.0000  15.9994



 SCF PARAMETERS         Density guess:                                   RESTART
                        --------------------------------------------------------
                        max_scf:                                              40
                        max_scf_history:                                       0
                        max_diis:                                              4
                        --------------------------------------------------------
                        eps_scf:                                        1.00E-06
                        eps_scf_history:                                0.00E+00
                        eps_diis:                                       1.00E-01
                        eps_eigval:                                     1.00E-05
                        --------------------------------------------------------
                        level_shift [a.u.]:                             0.000000
                        --------------------------------------------------------
                        Outer loop SCF in use 
                        No variables optimised in outer loop
                        eps_scf                                         1.00E-06
                        max_scf                                               60
                        No outer loop optimization
                        step_size                                       5.00E-01

 PW_GRID| Information for grid number                                          1
 PW_GRID| Grid distributed over                                   128 processors
 PW_GRID| Real space group dimensions                                   128    1
 PW_GRID| the grid is blocked:                                                NO
 PW_GRID| Cutoff [a.u.]                                                    300.0
 PW_GRID| spherical cutoff:                                                   NO
 PW_GRID|   Bounds   1           -112     112                Points:         225
 PW_GRID|   Bounds   2           -112     112                Points:         225
 PW_GRID|   Bounds   3            -72      71                Points:         144
 PW_GRID| Volume element (a.u.^3)  0.2035E-02     Volume (a.u.^3)     14833.7304
 PW_GRID| Grid span                                                    FULLSPACE
 PW_GRID|   Distribution                         Average         Max         Min
 PW_GRID|   G-Vectors                            56953.1       57150       56925
 PW_GRID|   G-Rays                                 253.1         254         253
 PW_GRID|   Real Space Points                    56953.1       64800       32400

 PW_GRID| Information for grid number                                          2
 PW_GRID| Number of the reference grid                                         1
 PW_GRID| Grid distributed over                                   128 processors
 PW_GRID| Real space group dimensions                                   128    1
 PW_GRID| the grid is blocked:                                                NO
 PW_GRID| Cutoff [a.u.]                                                    100.0
 PW_GRID| spherical cutoff:                                                   NO
 PW_GRID|   Bounds   1            -67      67                Points:         135
 PW_GRID|   Bounds   2            -67      67                Points:         135
 PW_GRID|   Bounds   3            -40      40                Points:          81
 PW_GRID| Volume element (a.u.^3)  0.1005E-01     Volume (a.u.^3)     14833.7304
 PW_GRID| Grid span                                                    FULLSPACE
 PW_GRID|   Distribution                         Average         Max         Min
 PW_GRID|   G-Vectors                            11533.0       12150       10800
 PW_GRID|   G-Rays                                  85.4          90          80
 PW_GRID|   Real Space Points                    11533.0       21870       10935

 PW_GRID| Information for grid number                                          3
 PW_GRID| Number of the reference grid                                         1
 PW_GRID| Grid distributed over                                   128 processors
 PW_GRID| Real space group dimensions                                     8   16
 PW_GRID| the grid is blocked:                                                NO
 PW_GRID| Cutoff [a.u.]                                                     33.3
 PW_GRID| spherical cutoff:                                                   NO
 PW_GRID|   Bounds   1            -37      37                Points:          75
 PW_GRID|   Bounds   2            -37      37                Points:          75
 PW_GRID|   Bounds   3            -24      23                Points:          48
 PW_GRID| Volume element (a.u.^3)  0.5494E-01     Volume (a.u.^3)     14833.7304
 PW_GRID| Grid span                                                    FULLSPACE
 PW_GRID|   Distribution                         Average         Max         Min
 PW_GRID|   G-Vectors                             2109.4        2475        1725
 PW_GRID|   G-Rays                                  28.1          33          23
 PW_GRID|   Real Space Points                     2109.4        2400        1728

 PW_GRID| Information for grid number                                          4
 PW_GRID| Number of the reference grid                                         1
 PW_GRID| Grid distributed over                                   128 processors
 PW_GRID| Real space group dimensions                                     8   16
 PW_GRID| the grid is blocked:                                                NO
 PW_GRID| Cutoff [a.u.]                                                     11.1
 PW_GRID| spherical cutoff:                                                   NO
 PW_GRID|   Bounds   1            -22      22                Points:          45
 PW_GRID|   Bounds   2            -22      22                Points:          45
 PW_GRID|   Bounds   3            -13      13                Points:          27
 PW_GRID| Volume element (a.u.^3)  0.2713         Volume (a.u.^3)     14833.7304
 PW_GRID| Grid span                                                    FULLSPACE
 PW_GRID|   Distribution                         Average         Max         Min
 PW_GRID|   G-Vectors                              427.1         585         270
 PW_GRID|   G-Rays                                   9.5          13           6
 PW_GRID|   Real Space Points                      427.1         486         270

 POISSON| Solver                                                        PERIODIC
 POISSON| Periodicity                                                        XYZ

 RS_GRID| Information for grid number                                          1
 RS_GRID|   Bounds   1           -112     112                Points:         225
 RS_GRID|   Bounds   2           -112     112                Points:         225
 RS_GRID|   Bounds   3            -72      71                Points:         144
 RS_GRID| Real space distribution over                                  8 groups
 RS_GRID| Real space distribution along direction                              1
 RS_GRID| Border size                                                         26
 RS_GRID| Real space distribution over                                 16 groups
 RS_GRID| Real space distribution along direction                              2
 RS_GRID| Border size                                                         26
 RS_GRID|   Distribution                         Average         Max         Min
 RS_GRID|   Planes                                  80.1          81          80
 RS_GRID|   Distribution                         Average         Max         Min
 RS_GRID|   Planes                                  66.1          67          66

 RS_GRID| Information for grid number                                          2
 RS_GRID|   Bounds   1            -67      67                Points:         135
 RS_GRID|   Bounds   2            -67      67                Points:         135
 RS_GRID|   Bounds   3            -40      40                Points:          81
 RS_GRID| Real space distribution over                                  8 groups
 RS_GRID| Real space distribution along direction                              1
 RS_GRID| Border size                                                         24
 RS_GRID| Real space distribution over                                 16 groups
 RS_GRID| Real space distribution along direction                              2
 RS_GRID| Border size                                                         24
 RS_GRID|   Distribution                         Average         Max         Min
 RS_GRID|   Planes                                  64.9          65          64
 RS_GRID|   Distribution                         Average         Max         Min
 RS_GRID|   Planes                                  56.4          57          56

 RS_GRID| Information for grid number                                          3
 RS_GRID|   Bounds   1            -37      37                Points:          75
 RS_GRID|   Bounds   2            -37      37                Points:          75
 RS_GRID|   Bounds   3            -24      23                Points:          48
 RS_GRID| Real space fully replicated
 RS_GRID| Group size                                                           1

 RS_GRID| Information for grid number                                          4
 RS_GRID|   Bounds   1            -22      22                Points:          45
 RS_GRID|   Bounds   2            -22      22                Points:          45
 RS_GRID|   Bounds   3            -13      13                Points:          27
 RS_GRID| Real space fully replicated
 RS_GRID| Group size                                                           1

 BFGS| Use rational function optimization for step estimation:                NO
 BFGS| Use model Hessian for initial guess:                                  YES
 BFGS| Restart Hessian:                                                       NO
 BFGS| Trust radius:                                                       0.472

 *******************************************************************************
 ***                     STARTING GEOMETRY OPTIMIZATION                      ***
 ***                                   BFGS                                  ***
 *******************************************************************************

 Spin 1

 Number of electrons:                                                        768
 Number of occupied orbitals:                                                768
 Number of molecular orbitals:                                               768

 Spin 2

 Number of electrons:                                                        767
 Number of occupied orbitals:                                                767
 Number of molecular orbitals:                                               767

 Number of orbital functions:                                               3328
 Number of independent orbital functions:                                   3328

 Extrapolation method: initial_guess

 *** WARNING in qs_initial_guess.F:306 :: User requested to restart the    ***
 *** wavefunction from the file named: tio2-RESTART.wfn. This file does    ***
 *** not exist. Please check the existence of the file or change properly  ***
 *** the value of the keyword WFN_RESTART_FILE_NAME. Calculation continues ***
 *** using ATOMIC GUESS.                                                   ***


 Atomic guess: The first density matrix is obtained in terms of atomic orbitals
               and electronic configurations assigned to each atomic kind

 Guess for atomic kind: Ti

 Electronic structure
    Total number of core electrons                                         10.00
    Total number of valence electrons                                      12.00
    Total number of electrons                                              22.00
    Multiplicity                                                   not specified
    S   [  2.00  2.00] 2.00  2.00
    P   [  6.00] 6.00
    D      2.00


 *******************************************************************************
                  Iteration          Convergence                     Energy [au]
 *******************************************************************************
                          1         2.59099                     -56.573945749309
                          2        0.737518                     -57.461623245624
                          3        0.123244E-01                 -57.676656834797
                          4        0.338536E-02                 -57.676690535970
                          5        0.252157E-03                 -57.676697146183
                          6        0.162704E-05                 -57.676697160103
                          7        0.846593E-06                 -57.676697160104

 Energy components [Hartree]           Total Energy ::          -57.676697160104
                                        Band Energy ::          -13.440549799540
                                     Kinetic Energy ::           25.008468428381
                                   Potential Energy ::          -82.685165588485
                                      Virial (-V/T) ::            3.306286661467
                                        Core Energy ::          -97.155838374470
                                          XC Energy ::           -6.919409696495
                                     Coulomb Energy ::           46.398550910862
                       Total Pseudopotential Energy ::         -122.259340742080
                       Local Pseudopotential Energy ::         -118.928992669456
                    Nonlocal Pseudopotential Energy ::           -3.330348072625
                                        Confinement ::            0.950339392289

 Orbital energies  State     L     Occupation   Energy[a.u.]          Energy[eV]

                       1     0          2.000      -2.312566          -62.928123
                       2     0          2.000      -0.123060           -3.348633

                       1     1          6.000      -1.385567          -37.703193

                       1     2          2.000      -0.127948           -3.481643


 Total Electron Density at R=0:                                         0.004726

 Guess for atomic kind: O

 Electronic structure
    Total number of core electrons                                          2.00
    Total number of valence electrons                                       6.00
    Total number of electrons                                               8.00
    Multiplicity                                                   not specified
    S   [  2.00] 2.00
    P      4.00


 *******************************************************************************
                  Iteration          Convergence                     Energy [au]
 *******************************************************************************
                          1        0.702811                     -15.577904332270
                          2        0.612408                     -15.588447180504
                          3        0.955344E-02                 -15.655871208406
                          4        0.223754E-02                 -15.655885053552
                          5        0.157183E-02                 -15.655885461027
                          6        0.124953E-02                 -15.655885607150
                          7        0.312011E-06                 -15.655885858066

 Energy components [Hartree]           Total Energy ::          -15.655885858066
                                        Band Energy ::           -2.983128125584
                                     Kinetic Energy ::           11.754765134683
                                   Potential Energy ::          -27.410650992749
                                      Virial (-V/T) ::            2.331875684345
                                        Core Energy ::          -26.153522949072
                                          XC Energy ::           -3.157392363346
                                     Coulomb Energy ::           13.655029454351
                       Total Pseudopotential Energy ::          -37.943026860963
                       Local Pseudopotential Energy ::          -39.220419683052
                    Nonlocal Pseudopotential Energy ::            1.277392822089
                                        Confinement ::            0.347387772086

 Orbital energies  State     L     Occupation   Energy[a.u.]          Energy[eV]

                       1     0          2.000      -0.861522          -23.443215

                       1     1          4.000      -0.315021           -8.572154


 Total Electron Density at R=0:                                         0.000093

 Spin 1
 Re-scaling the density matrix to get the right number of electrons for spin 1
                  # Electrons              Trace(P)               Scaling factor
                          768               768.001                        1.000

 Spin 2
 Re-scaling the density matrix to get the right number of electrons for spin 2
                  # Electrons              Trace(P)               Scaling factor
                          767               768.001                        0.999


 SCF WAVEFUNCTION OPTIMIZATION

  ----------------------------------- OT ---------------------------------------
  Minimizer      : DIIS                : direct inversion
                                         in the iterative subspace
                                         using   7 DIIS vectors
                                         safer DIIS on
  Preconditioner : FULL_SINGLE_INVERSE : inversion of 
                                         H + eS - 2*(Sc)(c^T*H*c+const)(Sc)^T
  Precond_solver : DEFAULT
  stepsize       :    0.08000000                  energy_gap     :    0.08000000
  eps_taylor     :   0.10000E-15                  max_taylor     :             4
  ----------------------------------- OT ---------------------------------------

  Step     Update method      Time    Convergence         Total energy    Change
  ------------------------------------------------------------------------------
     1 OT DIIS     0.80E-01    2.1     0.00998490     -5650.7886487944 -5.65E+03
     2 OT DIIS     0.80E-01    1.5     0.00722772     -5685.3442939981 -3.46E+01
     3 OT DIIS     0.80E-01    1.5     0.00461046     -5717.7465852392 -3.24E+01
     4 OT DIIS     0.80E-01    1.5     0.00365594     -5728.0622334377 -1.03E+01
     5 OT DIIS     0.80E-01    1.5     0.00266816     -5739.3147245520 -1.13E+01
     6 OT DIIS     0.80E-01    1.5     0.00219628     -5746.1593123815 -6.84E+00
     7 OT DIIS     0.80E-01    1.5     0.00185036     -5752.1209266088 -5.96E+00
     8 OT DIIS     0.80E-01    1.5     0.00148083     -5757.9737410600 -5.85E+00
     9 OT DIIS     0.80E-01    1.5     0.00127384     -5761.5992964667 -3.63E+00
    10 OT DIIS     0.80E-01    1.5     0.00099469     -5764.8202887052 -3.22E+00
    11 OT DIIS     0.80E-01    1.5     0.00090776     -5765.6298142596 -8.10E-01
    12 OT DIIS     0.80E-01    1.5     0.00073800     -5767.3843640295 -1.75E+00
    13 OT DIIS     0.80E-01    1.5     0.00060058     -5768.7581190859 -1.37E+00
    14 OT DIIS     0.80E-01    1.5     0.00049725     -5769.6720479120 -9.14E-01
    15 OT DIIS     0.80E-01    1.5     0.00044416     -5770.1514449307 -4.79E-01
    16 OT DIIS     0.80E-01    1.5     0.00037642     -5770.6525023187 -5.01E-01
    17 OT DIIS     0.80E-01    1.5     0.00034269     -5770.9107417667 -2.58E-01
    18 OT DIIS     0.80E-01    1.5     0.00029908     -5771.2173126765 -3.07E-01
    19 OT DIIS     0.80E-01    1.5     0.00026523     -5771.4110540588 -1.94E-01
    20 OT DIIS     0.80E-01    1.5     0.00025218     -5771.5096050188 -9.86E-02
    21 OT DIIS     0.80E-01    1.5     0.00022629     -5771.7089510689 -1.99E-01
    22 OT DIIS     0.80E-01    1.5     0.00020379     -5771.8493799361 -1.40E-01
    23 OT DIIS     0.80E-01    1.5     0.00018977     -5771.9613151851 -1.12E-01
    24 OT DIIS     0.80E-01    1.5     0.00017049     -5772.0424386186 -8.11E-02
    25 OT DIIS     0.80E-01    1.5     0.00016217     -5772.1050721495 -6.26E-02
    26 OT DIIS     0.80E-01    1.5     0.00014703     -5772.1697174490 -6.46E-02
    27 OT DIIS     0.80E-01    1.5     0.00014250     -5772.2235764301 -5.39E-02
    28 OT DIIS     0.80E-01    1.5     0.00013863     -5772.2379943655 -1.44E-02
    29 OT DIIS     0.80E-01    1.5     0.00014071     -5772.2802265271 -4.22E-02
    30 OT DIIS     0.80E-01    1.5     0.00013824     -5772.2826807151 -2.45E-03
    31 OT DIIS     0.80E-01    1.5     0.00011671     -5772.3478109140 -6.51E-02
    32 OT DIIS     0.80E-01    1.5     0.00011799     -5772.3753144266 -2.75E-02
    33 OT DIIS     0.80E-01    1.5     0.00010482     -5772.4075152423 -3.22E-02
    34 OT DIIS     0.80E-01    1.5     0.00009971     -5772.4303273295 -2.28E-02
    35 OT DIIS     0.80E-01    1.5     0.00009145     -5772.4737069696 -4.34E-02
    36 OT DIIS     0.80E-01    1.5     0.00009524     -5772.4930550195 -1.93E-02
    37 OT DIIS     0.80E-01    1.5     0.00009147     -5772.5033958004 -1.03E-02
    38 OT DIIS     0.80E-01    1.5     0.00008610     -5772.5080534265 -4.66E-03
    39 OT DIIS     0.80E-01    1.5     0.00008464     -5772.5161749410 -8.12E-03
    40 OT DIIS     0.80E-01    1.5     0.00008326     -5772.5322590254 -1.61E-02

  Leaving inner SCF loop after reaching    40 steps.


  Electronic density on regular grids:      -1534.9999999999        0.0000000001
  Core density on regular grids:             1535.9999999995       -0.0000000005
  Total charge density on r-space grids:        0.9999999996
  Total charge density g-space grids:           0.9999999996

  Overlap energy of the core charge distribution:               0.00000000000315
  Self energy of the core charge distribution:             -12156.89556134359555
  Core Hamiltonian energy:                                   3293.19174038299661
  Hartree energy:                                            4003.41002583409909
  Exchange-correlation energy:                               -927.72319682638670

  DFT+U energy:                                                15.48473292743514

  Total energy:                                             -5772.53225902544909

  outer SCF iter =    1 RMS gradient =   0.83E-04 energy =      -5772.5322590254

  ----------------------------------- OT ---------------------------------------
[...]
 flops    26 x    26 x    64        1824979353600       0.0%    100.0%      0.0%     
 flops   416 x    32 x    32        2572752519168       0.0%    100.0%      0.0%     
 flops    96 x    64 x    64        2647737237504       0.0%    100.0%      0.0%     
 flops   416 x    64 x    32        4823910973440       0.0%    100.0%      0.0%     
 flops   416 x    32 x    64        4823910973440       0.0%    100.0%      0.0%     
 flops    96 x    32 x   208        6061050298368       0.0%    100.0%      0.0%     
 flops   416 x    32 x   208        7649772961792       0.0%    100.0%      0.0%     
 flops   416 x    64 x    64        9085032333312       0.0%    100.0%      0.0%     
 flops    96 x    64 x   208       11441657610240       0.0%    100.0%      0.0%     
 flops    13 x    32 x    13       12146679089792       0.0%    100.0%      0.0%     
 flops    26 x    32 x    26       12536852250624       0.0%    100.0%      0.0%     
 flops    26 x    32 x    13       12536852250624       0.0%    100.0%      0.0%     
 flops    13 x    32 x    26       12536852250624       0.0%    100.0%      0.0%     
 flops   416 x    64 x   208       14475876892672       0.0%    100.0%      0.0%     
 flops inhomo. stacks                    65447332     100.0%      0.0%      0.0%
 flops total                       135.511305E+12       0.0%    100.0%      0.0%
 flops max/rank                      1.413802E+12       0.0%    100.0%      0.0%
 matmuls inhomo. stacks                     94706     100.0%      0.0%      0.0%
 matmuls total                         3313871390       0.0%    100.0%      0.0%
 number of processed stacks              82489490       0.1%     99.9%      0.0%
 average stack size                                     1.0      40.2       0.0
 marketing flops                   147.978635E+12
 -------------------------------------------------------------------------------
 # multiplications                          70736
 max memory usage/rank             377.151488E+06
 # max total images/rank                        2
 # max 3D layers                                1
 # MPI messages exchanged               262572032
 MPI messages size (bytes):
  total size                        24.324086E+12
  min size                           0.000000E+00
  max size                         692.224000E+03
  average size                      92.637766E+03
 MPI breakdown and total messages size (bytes):
             size <=      128           140238240                  3386232
       128 < size <=     8192            11152800              60555855904
      8192 < size <=    32768            27887872             633874900352
     32768 < size <=   131072            37223680            2920209239960
    131072 < size <=  4194304            46069440           20691710548080
   4194304 < size <= 16777216                   0                        0
  16777216 < size                               0                        0
 -------------------------------------------------------------------------------

 *** WARNING in dbcsr_mm.F:301 :: Using a non-square number of MPI ranks ***
 *** might lead to poor performance. Used ranks: 128 Suggested: 121 256  ***

 -------------------------------------------------------------------------------
 -                                                                             -
 -                      DBCSR MESSAGE PASSING PERFORMANCE                      -
 -                                                                             -
 -------------------------------------------------------------------------------
 ROUTINE             CALLS      AVE VOLUME [Bytes]
 MP_Bcast               97                     12.
 MP_Allreduce       358670                      9.
 MP_Alltoall        264378                  29411.
 MP_ISend          4441244                  45626.
 MP_IRecv          4428496                  45396.
 -------------------------------------------------------------------------------

 -------------------------------------------------------------------------------
 -                                                                             -
 -                                DBM STATISTICS                               -
 -                                                                             -
 -------------------------------------------------------------------------------
    M  x    N  x    K                                          COUNT     PERCENT
 -------------------------------------------------------------------------------

 -------------------------------------------------------------------------------
 -                                                                             -
 -                                GRID STATISTICS                              -
 -                                                                             -
 -------------------------------------------------------------------------------
 LP    KERNEL             BACKEND                              COUNT     PERCENT
 5     collocate ortho    CPU                              196178448      24.95%
 5     integrate ortho    CPU                              191928790      24.41%
 6     integrate ortho    CPU                              103564432      13.17%
 6     collocate ortho    CPU                              100189902      12.74%
 4     collocate ortho    CPU                               89302656      11.36%
 4     integrate ortho    CPU                               85874678      10.92%
 0     integrate general  CPU                                9437184       1.20%
 0     collocate general  CPU                                5308416       0.68%
 7     integrate ortho    CPU                                3686118       0.47%
 1     integrate general  CPU                                 565248       0.07%
 2     collocate ortho    CPU                                  61440       0.01%
 3     collocate ortho    CPU                                  36864       0.00%
 -------------------------------------------------------------------------------

 MEMORY| Estimated peak process memory [MiB]                                 360

 -------------------------------------------------------------------------------
 ----                             MULTIGRID INFO                            ----
 -------------------------------------------------------------------------------
 count for grid        1:        4404685          cutoff [a.u.]          300.00
 count for grid        2:        4560723          cutoff [a.u.]          100.00
 count for grid        3:        6409582          cutoff [a.u.]           33.33
 count for grid        4:        7384552          cutoff [a.u.]           11.11
 total gridlevel count  :       22759542

 -------------------------------------------------------------------------------
 -                                                                             -
 -                         MESSAGE PASSING PERFORMANCE                         -
 -                                                                             -
 -------------------------------------------------------------------------------

 ROUTINE             CALLS      AVE VOLUME [Bytes]
 MP_Group                4
 MP_Bcast            33895                   6177.
 MP_Allreduce        95712                    404.
 MP_Sync              8609
 MP_Alltoall         26582                2292063.
 MP_SendRecv        341884                  11544.
 MP_ISendRecv       316992                  11544.
 MP_Wait            475726
 MP_comm_split        3417
 MP_ISend           285854                  79152.
 MP_IRecv           284874                  79413.
 MP_Write_All          144                 355816.
 -------------------------------------------------------------------------------


 -------------------------------------------------------------------------------
 -                                                                             -
 -                           R E F E R E N C E S                               -
 -                                                                             -
 -------------------------------------------------------------------------------
 
 CP2K version 2024.3, the CP2K developers group (2024).
 CP2K is freely available from https://www.cp2k.org/ .
 
 T. D. Kuehne, M. Iannuzzi, M. Del Ben, V. V. Rybkin, P. Seewald, F. Stein, T. 
 Laino, R. Z. Khaliullin, O. Schuett, F. Schiffmann, D. Golze, J. Wilhelm, S. 
 Chulkov, M. H. Bani-Hashemian, V. Weber, U. Borstnik, M. Taillefumier, A. S. 
 Jakobovits, A. Lazzaro, H. Pabst, T. Mueller, R. Schade, M. Guidon, S. 
 Andermatt, N. Holmberg, G. K. Schenter, A. Hehn, A. Bussy, F. Belleflamme, G. 
 Tabacchi, A. Gloess, M. Lass, I. Bethune, C. J. Mundy, C. Plessl, M. Watkins, 
 J. VandeVondele, M. Krack, J. Hutter.
 J. Chem. Phys. 152, 194103 (2020).
 CP2K: An electronic structure and molecular dynamics software package - 
 Quickstep: Efficient and accurate electronic structure calculations.
 https://doi.org/10.1063/5.0007045

 O. Schuett, P. Messmer, J. Hutter, J. VandeVondele.
 Electronic Structure Calculations on Graphics Processing Units, 173-190 (2016).
 GPU-Accelerated Sparse Matrix-Matrix Multiplication for Linear Scaling Density 
 Functional Theory.
 https://doi.org/10.1002/9781118670712.ch8

 A. Heinecke, G. Henry, M. Hutchinson, H. Pabst.
 Proceedings of Intl. Supercomputing Conference, 981-991 (2016).
 LIBXSMM: Accelerating Small Matrix Multiplications by Runtime Code Generation.
 https://doi.org/10.1109/SC.2016.83

 J. Hutter, M. Iannuzzi, F. Schiffmann, J. VandeVondele.
 WIREs Comput Mol Sci. 4, 15-25 (2014).
 CP2K: atomistic simulations of condensed matter systems.
 https://doi.org/10.1002/wcms.1159

 U. Borstnik, J. VandeVondele, V. Weber, J. Hutter.
 Parallel Comput. 40, 47-58 (2014).
 Sparse matrix multiplication: The distributed block-compressed sparse row 
 library.
 https://doi.org/10.1016/j.parco.2014.03.012

 A. Marek, V. Blum, R. Johanni, V. Havu, B. Lang, T. Auckenthaler, A. Heinecke, 
 H. Bungartz, H. Lederer.
 J. Phys. Condens. Matter 26, 213201 (2014).
 The ELPA library: scalable parallel eigenvalue solutions for electronic 
 structure theory and computational science.
 https://doi.org/10.1088/0953-8984/26/21/213201

 J. VandeVondele, J. Hutter.
 J. Chem. Phys. 127, 114105 (2007).
 Gaussian basis sets for accurate calculations on molecular systems in gas and 
 condensed phases.
 https://doi.org/10.1063/1.2770708

 T. D. Khne, M. Krack, F. R. Mohamed, M. Parrinello.
 Phys. Rev. Lett. 98, 066401 (2007).
 Efficient and accurate Car-Parrinello-like approach to Born-Oppenheimer 
 molecular dynamics.
 https://doi.org/10.1103/PhysRevLett.98.066401

 J. VandeVondele, M. Krack, F. Mohamed, M. Parrinello, T. Chassaing, J. Hutter.
 Comput. Phys. Commun. 167, 103-128 (2005).
 QUICKSTEP: Fast and accurate density functional calculations using a mixed 
 Gaussian and plane waves approach.
 https://doi.org/10.1016/j.cpc.2004.12.014

 M. Krack.
 Theor. Chem. Acc. 114, 145-152 (2005).
 Pseudopotentials for H to Kr optimized for gradient-corrected 
 exchange-correlation functionals.
 https://doi.org/10.1007/s00214-005-0655-y

 M. Frigo, S. G. Johnson.
 Proc. IEEE 93, 216-231 (2005).
 The design and implementation of FFTW3.
 https://doi.org/10.1109/JPROC.2004.840301

 J. Kolafa.
 J. Comput. Chem. 25, 335-342 (2004).
 Time-reversible always stable predictor-corrector method for molecular dynamics 
 of polarizable molecules.
 https://doi.org/10.1002/jcc.10385

 J. VandeVondele, J. Hutter.
 J. Chem. Phys. 118, 4365-4369 (2003).
 An efficient orbital transformation method for electronic structure 
 calculations.
 https://doi.org/10.1063/1.1543154

 C. Hartwigsen, S. Goedecker, J. Hutter.
 Phys. Rev. B 58, 3641-3662 (1998).
 Relativistic separable dual-space Gaussian pseudopotentials from H to Rn.
 https://doi.org/10.1103/PhysRevB.58.3641

 S. L. Dudarev, G. A. Botton, S. Y. Savrasov, C. J. Humphreys, A. P. Sutton.
 Phys. Rev. B 57, 1505-1509 (1998).
 Electron-energy-loss spectra and the structural stability of nickel oxide: An 
 LSDA+U study.
 https://doi.org/10.1103/PhysRevB.57.1505

 G. Lippert, J. Hutter, M. Parrinello.
 Mol. Phys. 92, 477-487 (1997).
 A hybrid Gaussian and plane wave density functional scheme.
 https://doi.org/10.1080/002689797170220

 S. L. Dudarev, D. N. Manh, A. P. Sutton.
 Philos. Mag. B 75, 613-628 (1997).
 Effect of Mott-Hubbard correlations on the electronic structure and structural 
 stability of uranium dioxide.
 https://doi.org/10.1080/13642819708202343

 S. Goedecker, M. Teter, J. Hutter.
 Phys. Rev. B 54, 1703-1710 (1996).
 Separable dual-space Gaussian pseudopotentials.
 https://doi.org/10.1103/PhysRevB.54.1703

 J. P. Perdew, K. Burke, M. Ernzerhof.
 Phys. Rev. Lett. 77, 3865-3868 (1996).
 Generalized gradient approximation made simple.
 https://doi.org/10.1103/PhysRevLett.77.3865


 -------------------------------------------------------------------------------
 -                                                                             -
 -                                T I M I N G                                  -
 -                                                                             -
 -------------------------------------------------------------------------------
 SUBROUTINE                       CALLS  ASD         SELF TIME        TOTAL TIME
                                MAXIMUM       AVERAGE  MAXIMUM  AVERAGE  MAXIMUM
 CP2K                                 1  1.0    0.475    0.491 1171.698 1171.705
 cp_geo_opt                           1  2.0    0.003    0.005 1170.235 1170.239
 geoopt_bfgs                          1  3.0    0.039    0.047 1170.232 1170.237
 cp_eval_at                          24  4.0    0.012    0.016 1167.784 1167.793
 qs_forces                           23  5.0    0.017    0.020 1137.955 1137.961
 qs_energies                         24  6.0    0.008    0.012 1107.672 1107.692
 scf_env_do_scf                      24  7.0    0.006    0.010  849.994  849.998
 scf_env_do_scf_inner_loop          601  8.0    0.024    0.308  813.462  814.381
 rebuild_ks_matrix                  624  9.9    0.004    0.005  452.264  453.416
 qs_ks_build_kohn_sham_matrix       624 10.9    0.126    0.144  452.260  453.412
 qs_ks_update_qs_env                629  9.0    0.011    0.019  427.134  428.191
 dbcsr_multiply_generic           70736 12.6    2.437    2.559  279.481  288.098
 sum_up_and_integrate               624 11.9    0.027    0.045  286.663  286.832
 integrate_v_rspace                1248 12.9    0.049    0.072  285.910  286.311
 qs_rho_update_rho_low              625  9.0    0.010    0.012  255.151  255.232
 calculate_rho_elec                1250 10.0    0.465    0.530  255.141  255.223
 scf_post_calculation_gpw            24  7.0    0.006    0.010  222.397  222.403
 grid_integrate_task_list          1248 13.9  207.940  216.829  207.940  216.829
 multiply_cannon                  70736 13.6   14.227   15.033  185.748  212.199
 grid_collocate_task_list          1250 11.0  185.173  192.091  185.173  192.091
 multiply_cannon_loop             70736 14.6    4.908    5.177  153.684  178.514
 qs_scf_new_mos                     601  9.0    0.004    0.006  157.953  159.475
 qs_scf_loop_do_ot                  601 10.0    0.005    0.007  157.949  159.470
 fft_wrap_pw1pw2                  21106 14.2    0.405    0.478  139.477  156.679
 fft_wrap_pw1pw2_300              13324 15.7    5.278    5.742  129.500  146.915
 ot_scf_mini                        601 11.0    0.023    0.029  144.761  145.849
 ot_mini                           3861 10.3    0.036    0.045  136.112  137.462
 qs_vxc_create                      624 11.9    0.017    0.021  131.733  132.738
 xc_vxc_pw_create                   624 12.9    2.392    3.031  131.716  132.724
 fft3d_ps                         21106 16.2   41.622   45.623  109.868  129.609
 make_lumo_gpw                       24  8.0    0.003    0.003  127.394  127.400
 ot_eigensolver                      48  9.0    0.051    0.056  126.952  126.954
 mp_waitall_1                   8271028 16.7   83.324  115.386   83.324  115.386
 multiply_cannon_multrec        1131776 15.6   61.228  104.504   61.472  104.747
 xc_pw_derive                      7488 14.9    0.069    0.079   89.041  104.440
 multiply_cannon_metrocomm3     1131776 15.6    2.703    2.751   60.634   99.934
 qs_ot_get_derivative              2856 11.8    0.020    0.025   98.097   98.864
 mp_alltoall_z22v                 21106 18.2   56.787   87.577   56.787   87.577
 write_available_results             24  8.0    0.002    0.003   73.032   73.090
 write_mo_free_results               24  9.0    3.004    3.088   72.128   72.187
 xc_rho_set_and_dset_create         624 13.9    2.146    3.390   68.231   71.998
 xc_pw_divergence                  1248 13.9    0.030    0.036   59.020   71.085
 density_rs2pw                     1250 11.0    0.063    0.077   63.126   69.170
 potential_pw2rs                   1248 13.9    0.092    0.105   63.665   64.101
 make_m2s                        141472 13.6    1.884    2.056   60.148   63.688
 yz_to_x                           7708 17.3    3.269    4.536   32.437   52.955
 make_images                     141472 14.6    3.688    4.022   49.025   52.041
 qs_ot_get_p                       4615 10.5    0.027    0.031   48.802   51.743
 transfer_pw2rs                    5063 14.8    0.071    0.080   48.086   48.391
 transfer_rs2pw                    5432 11.9    0.088    0.122   39.951   46.140
 mp_waitany                      127130 15.3   32.853   41.473   32.853   41.473
 x_to_yz                           8210 17.6    5.435    7.286   32.686   41.025
 hirshfeld_integration               48 10.0   34.266   35.930   37.177   37.196
 qs_ot_get_derivative_taylor       1167 13.7    0.027    0.030   36.447   37.187
 init_scf_loop                       28  8.0    0.004    0.006   35.635   35.650
 transfer_pw2rs_300                1319 15.6   16.674   17.729   33.750   35.589
 apply_preconditioner_dbcsr        3009 12.8    0.007    0.008   31.925   34.854
 apply_single                      3009 13.8    0.008    0.009   31.918   34.847
 build_core_hamiltonian_matrix_      23  6.0    0.001    0.001   28.020   33.772
 multiply_cannon_metrocomm4     1061040 15.6    2.630    2.678   12.552   33.032
 transfer_rs2pw_300                1394 12.8   10.119   13.127   26.639   32.833
 mp_sum_l                        334395 13.7   20.327   32.667   20.327   32.667
 mp_irecv_dv                    2262898 16.6   10.160   29.604   10.160   29.604
 qs_ot_get_derivative_diag         1689 12.2    0.030    0.032   27.254   27.370
 mp_alltoall_d11v                 59598 14.9   20.573   27.178   20.573   27.178
 mp_sum_d                         54521 13.9   18.137   27.055   18.137   27.055
 qs_ks_update_qs_env_forces          23  6.0    0.000    0.000   26.177   26.247
 ot_diis_step                       601 13.0    0.056    0.062   24.383   24.388
 qs_ot_p2m_diag                    3298 11.1    0.149    0.183   24.046   24.174
 -------------------------------------------------------------------------------

 The number of warnings for this run is : 3
 
 -------------------------------------------------------------------------------
  **** **** ******  **  PROGRAM ENDED AT                 2025-06-16 16:17:53.527
 ***** ** ***  *** **   PROGRAM RAN ON                                 nid006721
 **    ****   ******    PROGRAM RAN BY                                    cahart
 ***** **    ** ** **   PROGRAM PROCESS ID                                124728
  **** **  *******  **  PROGRAM STOPPED IN /mnt/lustre/a2fs-work2/work/e05/e05/c
                                           ahart/postdoc2/work/group/tio2/anatas
                                           e/cell-441/geo-opt/mp-390/hole/from-n
                                           eutral/pbe-u-o/u-6.0
