     192
 i =        7, E =     -5772.8793718416
Ti        -0.0010722199        0.0026498258       -0.0003665040
Ti         1.8863318898        1.8895931997        4.8069359354
Ti        -0.0003818799        1.8891533721        2.4020896830
Ti         1.8860879384        0.0037136988        7.2138356029
Ti        -0.0000145506        3.7752944956        0.0023461154
Ti         1.8836823570       13.2417012535        4.8093808714
Ti        11.3514682329        1.8877694548        2.4038467501
Ti         5.6695327487        0.0055629112        7.2198244807
Ti         1.8866826060        3.7751279868        7.2113443021
Ti        -0.0064600491       13.2399696523        2.4017761822
Ti         5.6687907790        1.8888876667        4.8010370250
Ti        11.3512540506        0.0019878708       -0.0019408175
Ti         3.7752041092       -0.0000245208       -0.0078039572
Ti        13.2375282364        1.8883163536        4.8096565572
Ti        13.2371241988        0.0016939604        7.2109200331
Ti         3.7750412896        1.8991607637        2.4094022852
Ti         1.8852882074        5.6649906786        4.8122004532
Ti        -0.0068511324       11.3515958899        0.0027749842
Ti        -0.0009242987        5.6664424218        2.3967526484
Ti         1.8796945402       11.3519576024        7.2094031298
Ti        -0.0024370121        7.5681715573        0.0072573614
Ti         1.8873492686        9.4602162891        4.8156815497
Ti         7.5715905473        1.8816918958        2.4119775258
Ti         9.4641878418        0.0022058870        7.2143323627
Ti         1.8832908528        7.5670375788        7.2063533094
Ti        -0.0189659940        9.4610968027        2.3946113658
Ti         9.4643384613        1.8875068660        4.8063837890
Ti         7.5723800726        0.0030303661       -0.0086688240
Ti         3.7744947256        3.7741615040       -0.0029162389
Ti        13.2373321262       13.2388332072        4.8090974271
Ti        11.3556035267        5.6662559947        2.3980572663
Ti         5.6726461628       11.3599317504        7.2171451316
Ti        13.2379375166        3.7755696829        7.2084398059
Ti         3.7754517405       13.2832094907        2.4180167521
Ti         5.6671141382        5.6558574793        4.8089903633
Ti        11.3536138798       11.3522202997        0.0014534896
Ti        11.3519219827       13.2397402185        2.4043760805
Ti         5.6679036880        3.7721273375        7.2172981013
Ti         3.7727745108       11.3534068945       -0.0304064407
Ti        13.2378301398        5.6673603508        4.8149466863
Ti         5.6706618387       13.2507087747        4.8042804956
Ti        11.3519833696        3.7747775600        0.0005102222
Ti        13.2362097008       11.3509865140        7.2072552353
Ti         3.7705912333        5.6522349112        2.4036827774
Ti         3.7682142534        7.5677259321       -0.0025243655
Ti        13.2376551234        9.4624244022        4.8140013026
Ti         7.5717329387        5.6340927719        2.4121439020
Ti         9.4679525512       11.3531963481        7.2109394718
Ti        13.2385370829        7.5694938154        7.2032574426
Ti         3.7172864651        9.4320983931        2.3947765109
Ti         9.4665604210        5.6646816733        4.8136405581
Ti         7.5800235376       11.3535404963       -0.0104829701
Ti        11.3697968393        9.4632588646        2.3962055072
Ti         5.6658636271        7.5601406133        7.2135009902
Ti         5.6680211692        9.4618490591        4.8527948735
Ti        11.3564182653        7.5687916344        0.0051935594
Ti         9.4643729944        3.7739548656        7.2118073241
Ti         7.5775410760       13.2528705763        2.4123492466
Ti         7.5713452392        3.7764615813       -0.0076577551
Ti         9.4654620660       13.2411359929        4.8058523556
Ti         7.5739454814        7.5665815070       -0.0214937859
Ti         9.4633025034        9.4639175357        4.8152478357
Ti         7.6316922105        9.4822595596        2.3945847376
Ti         9.4695281672        7.5683231025        7.2063179102
O         0.0050230778        0.0009662127        1.9843339004
O         1.8868729322        1.8874676935        6.7904500909
O         0.0019350007        1.8840947896        4.3873811888
O         1.8883297433       -0.0040316548        9.1966761276
O         1.8880661266        0.0017049772        5.2271331941
O         0.0023375763        1.8870605042        0.4205151894
O         1.8878667565        1.8830819734        2.8228445648
O         0.0020103852       -0.0012321842        7.6314589002
O         0.0023526177        3.7761595984        1.9798671371
O         1.8888493451       13.2362749165        6.7926582380
O        11.3510194191        1.8849725878        4.3874233197
O         5.6720059713       -0.0049192496        9.1993869816
O         1.8874138868        3.7760534812        5.2317395297
O         0.0055621604       13.2361778862        0.4197681679
O         5.6722084272        1.8839661333        2.8203928035
O        11.3508044381       -0.0006660972        7.6314390678
O         3.7763880303       -0.0033909986        7.6326837729
O        13.2369268082        1.8845143762        2.8235751820
O        13.2367642636       -0.0008719241        9.1949651345
O         3.7761244653        1.8836147464        4.3866028549
O         1.8878377353        5.6727686747        6.7924768951
O         0.0093168857       11.3511787508        1.9854728739
O         0.0027407477        5.6727297980        0.4180674245
O         1.8944433258       11.3502797984        5.2229029239
O         0.0048671322        7.5667750766        1.9867172726
O         1.8911242552        9.4629718747        6.7910269774
O         7.5662257243        1.8849202531        4.3914784461
O         9.4621685373       -0.0014150751        9.1920711276
O         1.8925914089        7.5670329473        5.2234874752
O         0.0057453165        9.4633159823        0.4199832063
O         9.4622831143        1.8854495306        2.8265955873
O         7.5660470234       -0.0020232023        7.6289145827
O         3.7709829898        0.0197637840        1.9778482760
O        13.2379222720        1.8872273492        6.7912602904
O         0.0019318935        5.6579631176        4.3870668179
O         1.8861365115       11.3517054026        9.1992250083
O        13.2384387555        0.0010335457        5.2270144499
O         3.7708005208        1.8843698241        0.4217663330
O         1.8871839185        5.6605168336        2.8233721178
O         0.0001256961       11.3524701689        7.6334401713
O        11.3523670995        1.8873100302        0.4203063206
O         5.6542755430        0.0046372969        5.2286857550
O         5.6553963977        1.8872046643        6.7890769082
O        11.3522312963        0.0012393935        1.9838736360
O         1.8880027942        3.7710189585        9.1967082376
O         0.0034273198       13.2354758741        4.3842452939
O         0.0021703108        3.7704519399        7.6305242381
O         1.8909378459       13.2155690950        2.8189803188
O         3.7723474950        3.7756354343        1.9759215065
O        13.2385231938       13.2360674991        6.7919518469
O        11.3501704069        5.6579228661        4.3857600071
O         5.6744182212       11.3473669680        9.2055506318
O        13.2375236941        3.7762683297        5.2308992936
O         3.7704511261       13.2246530553        0.4364449255
O         5.6729785278        5.6758803255        2.8185108954
O        11.3511949115       11.3520234338        7.6330492801
O        11.3517944933       13.2365008613        0.4195360868
O         5.6560993141        3.7729683847        5.2328010511
O         3.7761269130       11.3505662548        7.6174282143
O        13.2377527724        5.6576596630        2.8244345414
O         5.6540824522       13.2388128165        6.7906947457
O        11.3506326150        3.7761587297        1.9804984286
O        13.2353911367       11.3524174526        9.1930059492
O         3.7772893939        5.6623704529        4.3851823689
O         5.6562164480        5.6703326508        6.7918005679
O        11.3497487499       11.3512207083        1.9851716214
O        13.2370681871        3.7705714552        9.1958797550
O         3.7766867974       13.2258151671        4.3861678220
O        11.3501348861        5.6728768952        0.4181269778
O         5.6537197610       11.3533038217        5.2168315393
O         3.7761959070        3.7716110648        7.6334540501
O        13.2354942567       13.2355256866        2.8252964515
O        13.2385810649       11.3507776558        5.2256745692
O         3.7729764951        5.6757439844        0.4208522526
O         5.6710076144       13.2116627361        2.8176906307
O        11.3509589925        3.7709102440        7.6305803099
O         3.7999102116       11.3476634403        2.0077433700
O        13.2374892071        5.6731431860        6.7935554783
O        11.3509702483       13.2353352733        4.3863693924
O         5.6723361055        3.7734924126        9.1998100487
O         3.7957033134        7.5537207445        1.9867297475
O        13.2380082812        9.4629181762        6.7885120480
O         7.5656987220        5.6660079997        4.3916654004
O         9.4647240759       11.3496154666        9.1917119078
O        13.2375546333        7.5672593890        5.2240118121
O         3.7823107363        9.4719078818        0.4284502596
O         9.4603427865        5.6720443561        2.8239019473
O         7.5673396186       11.3495017272        7.6274414789
O        11.3494366317        9.4627081054        0.4196267616
O         5.6563492451        7.5649526145        5.2161547642
O         5.6550045954        9.4630605049        6.8169163372
O        11.3470358689        7.5668443694        1.9871180184
O         9.4619368395        3.7728798018        9.1935807341
O         7.5643906263       13.2308931962        4.3888734099
O         7.5659398319        3.7725388012        7.6268699373
O         9.4630048897       13.2324614987        2.8277939997
O         7.5792766085        0.0024420655        1.9804303788
O         9.4671200250        1.8870281221        6.7912523721
O         0.0058994276        9.4700654639        4.3846360954
O         1.8861164264        7.5881684795        9.1960199504
O         9.4663924645        0.0013041281        5.2270173785
O         7.5813012861        1.8888951540        0.4218049406
O         1.8616391117        9.4791974311        2.8301315852
O         0.0018490836        7.5851266459        7.6324674476
O         7.5811798518        3.7629593671        1.9752971086
O         9.4658271967       13.2364037091        6.7917676876
O        11.3473519391        9.4688441847        4.3846786662
O         5.6701276320        7.5910912727        9.2044956369
O         9.4662110052        3.7756193353        5.2303079966
O         7.5784259426       13.2336086776        0.4229177921
O         5.6708804589        9.4747190278        2.7904760024
O        11.3523829708        7.5845978018        7.6326714710
O         3.7753658301        7.5880557019        7.6323485300
O        13.2368447162        9.4695369249        2.8310331977
O        13.2379806021        7.5847933038        9.1936820320
O         3.7928397060        9.4761467088        4.3646134619
O         9.4656304507        5.6728751384        6.7943718175
O         7.5523396502       11.3597447468        1.9871881731
O         7.5815331570        5.6813859071        0.4306428664
O         9.4607001221       11.3509108114        5.2242467856
O         7.5518895283        7.5712874340        2.0037900450
O         9.4628511128        9.4630028556        6.7919022503
O         7.5482196963        9.4641232064        4.3678462137
O         9.4637840365        7.5857474449        9.1946223677
O         9.4601657730        7.5677384786        5.2212514023
O         7.5695865591        9.4577384200        0.4248931079
O         9.4892704743        9.4642208439        2.8348968135
O         7.5659540814        7.5869948586        7.6166756884
     192
 i =        8, E =     -5772.8868470556
Ti        -0.0002334043        0.0030235421       -0.0002260313
Ti         1.8855421747        1.8880849238        4.8086376393
Ti         0.0000826108        1.8883194665        2.4017864671
Ti         1.8849794167        0.0040360294        7.2126478975
Ti        -0.0002936354        3.7751967612        0.0022682392
Ti         1.8821193289       13.2380484806        4.8093893464
Ti        11.3514058622        1.8881407338        2.4036628274
Ti         5.6693061335        0.0077012997        7.2193999254
Ti         1.8855939832        3.7750843074        7.2108918932
Ti        -0.0038252927       13.2379113930        2.4016039836
Ti         5.6689049200        1.8883921883        4.8034061323
Ti        11.3518444716        0.0025754294       -0.0022378323
Ti         3.7742702754        0.0055342542       -0.0077486066
Ti        13.2372726154        1.8881931112        4.8098744702
Ti        13.2371009197        0.0023457286        7.2111327514
Ti         3.7749818520        1.8984303266        2.4055237867
Ti         1.8846312203        5.6667635288        4.8130627859
Ti        -0.0025541774       11.3525371122        0.0008980803
Ti        -0.0000977724        5.6672569707        2.3973522117
Ti         1.8768228519       11.3530306555        7.2081702743
Ti        -0.0007326110        7.5676830116        0.0051082161
Ti         1.8830916316        9.4628641201        4.8179482013
Ti         7.5713300673        1.8842900377        2.4077136988
Ti         9.4648008677        0.0028653014        7.2140984317
Ti         1.8817692691        7.5663399246        7.2068987929
Ti        -0.0212196865        9.4620365415        2.3978956471
Ti         9.4645754375        1.8884925627        4.8076609011
Ti         7.5715829489        0.0040315120       -0.0102475004
Ti         3.7747899999        3.7750664361       -0.0060745197
Ti        13.2366892156       13.2393534767        4.8084193156
Ti        11.3532954618        5.6680666680        2.3982186087
Ti         5.6744038306       11.3664261076        7.2200068450
Ti        13.2374219982        3.7754954329        7.2085132823
Ti         3.7774028326       13.2939294327        2.4258869672
Ti         5.6666223116        5.6593455917        4.8102995539
Ti        11.3526918703       11.3530493396       -0.0007859809
Ti        11.3516998296       13.2390201238        2.4055174681
Ti         5.6683574919        3.7704085906        7.2172095792
Ti         3.7769358691       11.3557678330       -0.0364742466
Ti        13.2376330665        5.6671085133        4.8145119776
Ti         5.6716269893       13.2464475191        4.8064557442
Ti        11.3516187272        3.7749194993        0.0005577689
Ti        13.2357335913       11.3521933312        7.2077874214
Ti         3.7737574888        5.6545175430        2.4016374859
Ti         3.7735140039        7.5602384811       -0.0048026649
Ti        13.2368801340        9.4625031749        4.8195967367
Ti         7.5690551190        5.6363267012        2.4150400356
Ti         9.4696819339       11.3542220258        7.2116154336
Ti        13.2381272828        7.5685956355        7.2040753132
Ti         3.6773664236        9.4244084383        2.3801268417
Ti         9.4666016185        5.6681400477        4.8129350452
Ti         7.5744481772       11.3612928696       -0.0132697555
Ti        11.3732186523        9.4625058679        2.3997895648
Ti         5.6656281350        7.5533915478        7.2176943560
Ti         5.6660341343        9.4618508651        4.8834005806
Ti        11.3524820043        7.5680597223        0.0030059483
Ti         9.4647585291        3.7743327794        7.2109701443
Ti         7.5735829477       13.2464852367        2.4107466359
Ti         7.5718861984        3.7742860139       -0.0065875177
Ti         9.4654387970       13.2396647408        4.8060484342
Ti         7.5691862978        7.5659514627       -0.0209336243
Ti         9.4647972959        9.4618991091        4.8176085391
Ti         7.6743986251        9.4804832819        2.3776796144
Ti         9.4700712572        7.5673467692        7.2067809902
O         0.0015899342       -0.0013540689        1.9851864330
O         1.8848237792        1.8870295324        6.7923217433
O         0.0026016291        1.8853741417        4.3870886708
O         1.8901250906       -0.0008420361        9.1952901047
O         1.8858804257       -0.0024108295        5.2249876172
O         0.0003409413        1.8867587911        0.4198986187
O         1.8897072938        1.8874103019        2.8244252372
O         0.0028207135        0.0012080340        7.6317377814
O         0.0010673953        3.7767313661        1.9802918585
O         1.8827546506       13.2349683976        6.7906575991
O        11.3504831666        1.8843394617        4.3875030300
O         5.6700266934       -0.0014745437        9.1975727017
O         1.8856400694        3.7770353292        5.2300925811
O        -0.0029673411       13.2354742581        0.4205011705
O         5.6718133193        1.8853312488        2.8237848793
O        11.3506066923        0.0004653665        7.6309333879
O         3.7764838704        0.0002220905        7.6353200331
O        13.2370201897        1.8846851087        2.8233244926
O        13.2375011942        0.0002475865        9.1955515671
O         3.7765616091        1.8867680443        4.3821829009
O         1.8838958815        5.6743377431        6.7929063112
O        -0.0073601977       11.3493816381        1.9819612994
O         0.0001319090        5.6738398387        0.4187654102
O         1.8880240668       11.3480275491        5.2260286121
O        -0.0022300810        7.5695322080        1.9843575092
O         1.8854930297        9.4634725418        6.7885594686
O         7.5652336759        1.8835279730        4.3869638455
O         9.4609030965        0.0001190556        9.1919204366
O         1.8904044309        7.5723500168        5.2234768651
O        -0.0046231716        9.4636554460        0.4241889625
O         9.4604487593        1.8828213973        2.8279867640
O         7.5648447214        0.0011882269        7.6288483393
O         3.7715834449        0.0113592619        1.9830744784
O        13.2378792175        1.8871563150        6.7916557502
O         0.0030420559        5.6567903882        4.3881396157
O         1.8946329470       11.3525976826        9.1980501243
O        13.2377918041        0.0005995758        5.2273091002
O         3.7693285419        1.8884636059        0.4165802714
O         1.8917458547        5.6588198255        2.8224269272
O         0.0012220155       11.3534916173        7.6315202500
O        11.3537681150        1.8873372092        0.4197893069
O         5.6553044974       -0.0011128669        5.2243115724
O         5.6557628581        1.8869190054        6.7922100052
O        11.3530539317        0.0002836872        1.9841897916
O         1.8888017927        3.7698110356        9.1964826606
O         0.0043854961       13.2402339336        4.3840230347
O         0.0024254210        3.7696876416        7.6304760161
O         1.8976866978       13.2198799345        2.8167937437
O         3.7713129891        3.7779792612        1.9775218900
O        13.2375082690       13.2357545793        6.7906912711
O        11.3491888256        5.6555635001        4.3866877972
O         5.6721903841       11.3572274653        9.1988700613
O        13.2380649363        3.7766093040        5.2311414375
O         3.7650193711       13.2245602628        0.4486014097
O         5.6737068997        5.6702750758        2.8224268663
O        11.3504108771       11.3540811934        7.6304747680
O        11.3538945373       13.2356510092        0.4208660937
O         5.6558317898        3.7771616185        5.2290308946
O         3.7772337056       11.3562632508        7.6265525836
O        13.2363344165        5.6578376364        2.8222155418
O         5.6568696147       13.2383551334        6.7902439601
O        11.3529871634        3.7779144246        1.9810574269
O        13.2374489098       11.3531593552        9.1963815518
O         3.7779762355        5.6549786791        4.3826843951
O         5.6546998465        5.6701974685        6.7919345770
O        11.3561883739       11.3491100893        1.9828121628
O        13.2365260732        3.7697914639        9.1962382279
O         3.7780668472       13.2479879871        4.3869447630
O        11.3564459984        5.6738383040        0.4186686626
O         5.6585781248       11.3444424177        5.2194184242
O         3.7767390093        3.7692776427        7.6327259606
O        13.2377093835       13.2366602667        2.8226445942
O        13.2375959507       11.3510710712        5.2265856508
O         3.7647383960        5.6747783260        0.4186685632
O         5.6674099939       13.2250249675        2.8202961783
O        11.3502849010        3.7692189802        7.6304093871
O         3.8290766877       11.3345635302        2.0270406692
O        13.2382802759        5.6738532283        6.7926409849
O        11.3496237498       13.2382395187        4.3880640627
O         5.6734075491        3.7712246918        9.1981906426
O         3.8039485081        7.5613693566        1.9905418583
O        13.2378268817        9.4632785641        6.7900160546
O         7.5636819545        5.6547163820        4.3909139309
O         9.4576918283       11.3521839636        9.1947708810
O        13.2382194659        7.5677747499        5.2253696395
O         3.7666836591        9.4705189376        0.4280971182
O         9.4551555792        5.6745425471        2.8223667635
O         7.5665669374       11.3553658161        7.6284032845
O        11.3579915211        9.4631940236        0.4242212703
O         5.6525289065        7.5741239200        5.2196162188
O         5.6553694234        9.4636376131        6.8124826963
O        11.3598708712        7.5693890698        1.9836638319
O         9.4603942115        3.7709572540        9.1923635705
O         7.5623015711       13.2439629088        4.3863231753
O         7.5653009381        3.7701114160        7.6296962717
O         9.4576841686       13.2366518812        2.8260637596
O         7.5787740604       -0.0021261979        1.9845110295
O         9.4687736053        1.8872514856        6.7928559450
O         0.0035712644        9.4674514963        4.3912928577
O         1.8931595264        7.5860475013        9.1990787926
O         9.4677569090       -0.0000619921        5.2255205067
O         7.5822992052        1.8865991532        0.4169625100
O         1.8608675196        9.4613236053        2.8307190305
O         0.0027999939        7.5829752906        7.6301601431
O         7.5798756232        3.7748372414        1.9810292547
O         9.4692962540       13.2351646260        6.7913252593
O        11.3480925055        9.4699329947        4.3919728470
O         5.6706956950        7.5812480082        9.1980126544
O         9.4678011248        3.7789623717        5.2285308741
O         7.5862192427       13.2352615394        0.4227438998
O         5.6671541423        9.4748499461        2.7550750454
O        11.3508793241        7.5834993813        7.6298320317
O         3.7762840599        7.5823762120        7.6330455184
O        13.2371629902        9.4693373750        2.8319254691
O        13.2364962089        7.5840361606        9.1971717108
O         3.8031050961        9.4637546706        4.3414685805
O         9.4703218268        5.6744563369        6.7927875863
O         7.5292679982       11.3437867298        1.9921277824
O         7.5866498584        5.6839940327        0.4351999018
O         9.4611366809       11.3466996102        5.2245157381
O         7.5170123214        7.5868899935        2.0145111097
O         9.4669508169        9.4633814957        6.7892894546
O         7.5330326017        9.4704120298        4.3430494618
O         9.4560086476        7.5850861170        9.1944496844
O         9.4638013367        7.5712501214        5.2247832860
O         7.5819684575        9.4625228223        0.4218611768
O         9.4892336193        9.4761510644        2.8357003971
O         7.5639603035        7.5814204849        7.6281527301
     192
 i =        9, E =     -5772.8900170257
Ti        -0.0012507147        0.0033543759        0.0003704350
Ti         1.8848518565        1.8892045907        4.8065381793
Ti        -0.0006159225        1.8887193651        2.4024869353
Ti         1.8835253297        0.0040400184        7.2125303773
Ti        -0.0008543340        3.7750203474        0.0030377938
Ti         1.8812903055       13.2397362922        4.8081944062
Ti        11.3521957891        1.8882628238        2.4042676290
Ti         5.6686921450        0.0095210599        7.2212412222
Ti         1.8837103803        3.7748405691        7.2102725976
Ti        -0.0033426901       13.2387436684        2.4004889818
Ti         5.6686355850        1.8889407205        4.7983424846
Ti        11.3522969934        0.0034361949       -0.0016003766
Ti         3.7725638918        0.0066714060       -0.0075356344
Ti        13.2370445246        1.8883131695        4.8093017504
Ti        13.2369389026        0.0035778200        7.2110786040
Ti         3.7738368458        1.8975529269        2.4067978372
Ti         1.8839954355        5.6661950666        4.8121419472
Ti        -0.0033140177       11.3534826856        0.0027572115
Ti        -0.0009509272        5.6668095861        2.3961403551
Ti         1.8762249235       11.3549426522        7.2086485670
Ti        -0.0028626956        7.5674854064        0.0071080625
Ti         1.8806192438        9.4630019993        4.8220603042
Ti         7.5714868962        1.8858495655        2.4106861638
Ti         9.4654979116        0.0040941891        7.2144013700
Ti         1.8807039553        7.5661907277        7.2072617488
Ti        -0.0278205446        9.4619382120        2.3967740726
Ti         9.4647029409        1.8883462749        4.8053492748
Ti         7.5718792241        0.0050755075       -0.0110782333
Ti         3.7734598851        3.7733605834       -0.0086128349
Ti        13.2363548827       13.2407374120        4.8084333101
Ti        11.3531904301        5.6684716988        2.3971830302
Ti         5.6744313293       11.3734005929        7.2236534307
Ti        13.2369640066        3.7749531808        7.2082153540
Ti         3.7784301821       13.2849922979        2.4283494631
Ti         5.6659641251        5.6591569566        4.8083534134
Ti        11.3543966788       11.3541359647        0.0014045237
Ti        11.3519241859       13.2408289970        2.4044520901
Ti         5.6689421146        3.7685982150        7.2183520437
Ti         3.7767248702       11.3582492358       -0.0281469528
Ti        13.2373679553        5.6664514619        4.8148323996
Ti         5.6711218613       13.2502137860        4.8045239433
Ti        11.3527426387        3.7751633949        0.0012972716
Ti        13.2359144778       11.3545866009        7.2073905376
Ti         3.7747111925        5.6602313830        2.4022993316
Ti         3.7733941811        7.5545517970       -0.0077229932
Ti        13.2366778758        9.4625051100        4.8283936765
Ti         7.5656681016        5.6482050586        2.4159511426
Ti         9.4702216413       11.3559877769        7.2124846895
Ti        13.2377331512        7.5669661587        7.2038700547
Ti         3.6454547170        9.4394837847        2.3668715840
Ti         9.4659985042        5.6683129414        4.8113313297
Ti         7.5701716423       11.3648883890       -0.0161434721
Ti        11.3804151181        9.4635452343        2.3987635211
Ti         5.6645449082        7.5469842527        7.2224503290
Ti         5.6665688626        9.4644396954        4.8896529459
Ti        11.3536575010        7.5677137547        0.0045865366
Ti         9.4657394126        3.7749734424        7.2107444137
Ti         7.5684532107       13.2471430621        2.4133085952
Ti         7.5729457184        3.7758706260       -0.0060684391
Ti         9.4651432782       13.2427840834        4.8043209637
Ti         7.5665292775        7.5652450825       -0.0183659018
Ti         9.4673317638        9.4635336494        4.8225846437
Ti         7.7036742465        9.4717795645        2.3632344131
Ti         9.4696682937        7.5661817347        7.2089988531
O         0.0019371674        0.0003754339        1.9853573288
O         1.8843730741        1.8865311346        6.7908951455
O         0.0024338026        1.8848266451        4.3875587926
O         1.8888773502        0.0005260895        9.1948448000
O         1.8832839191        0.0005282306        5.2255420999
O         0.0006235454        1.8867441607        0.4204354743
O         1.8889115645        1.8860298852        2.8226541233
O         0.0024767306        0.0010080885        7.6322911549
O         0.0005876526        3.7769164089        1.9804877305
O         1.8822830692       13.2344612814        6.7887474985
O        11.3504585357        1.8851280923        4.3880658604
O         5.6691810016       -0.0004834121        9.1974978709
O         1.8843074831        3.7775111345        5.2305120864
O        -0.0001528007       13.2356026471        0.4193940066
O         5.6712450392        1.8861803553        2.8201727450
O        11.3507510490        0.0005783639        7.6313919178
O         3.7758498954       -0.0000168172        7.6367362539
O        13.2366727882        1.8849328258        2.8232856872
O        13.2365890247        0.0010255292        9.1949478611
O         3.7762715451        1.8858858748        4.3820494880
O         1.8834930184        5.6757833946        6.7921864478
O        -0.0037078568       11.3485573957        1.9832519231