     192
 i =        7, E =     -5772.8793718416
Ti         0.0001270965        0.0002036466        0.0000258575
Ti        -0.0008486574       -0.0003034995        0.0000982143
Ti        -0.0001217725       -0.0002906683        0.0000255690
Ti        -0.0007734818        0.0005261538        0.0001459168
Ti        -0.0000716616       -0.0002105096       -0.0001094717
Ti        -0.0008042626       -0.0012011206        0.0001048923
Ti         0.0003586873        0.0001689064       -0.0000181466
Ti         0.0002119856        0.0013258548        0.0013536423
Ti        -0.0006000401       -0.0002332954        0.0002473403
Ti         0.0006127799       -0.0004891587       -0.0002720614
Ti         0.0002322346        0.0000257982       -0.0004555883
Ti         0.0003696964        0.0005771324       -0.0000686499
Ti        -0.0004006226        0.0025918016       -0.0022849487
Ti        -0.0002298450       -0.0000645697        0.0000537978
Ti        -0.0001720726        0.0005000349       -0.0000813762
Ti        -0.0003836148        0.0007817542        0.0000983861
Ti        -0.0006294337       -0.0001872448        0.0003908125
Ti         0.0006346595        0.0008939360        0.0006615990
Ti        -0.0001385606       -0.0002347450       -0.0001271943
Ti        -0.0024772763        0.0007748778       -0.0013996986
Ti        -0.0000608792       -0.0006112310        0.0000556490
Ti        -0.0059379241        0.0012608872        0.0028492460
Ti         0.0003494257       -0.0002664121        0.0000421395
Ti         0.0004702611        0.0006442171        0.0002886309
Ti        -0.0010767244       -0.0007458713       -0.0003579416
Ti         0.0003037993        0.0006952713       -0.0002399099
Ti         0.0005937182        0.0002222689       -0.0000349224
Ti         0.0000901800        0.0008471262       -0.0016356926
Ti        -0.0000877875       -0.0002263178       -0.0020540299
Ti        -0.0002633711        0.0001456045        0.0005295271
Ti        -0.0007718431        0.0002097528       -0.0001917900
Ti         0.0013258427        0.0038752996        0.0030407913
Ti        -0.0003106343       -0.0001717362       -0.0000838358
Ti         0.0003626009        0.0070238299        0.0016523524
Ti         0.0005290332       -0.0005154700       -0.0013869468
Ti         0.0004625078        0.0006088310        0.0001268484
Ti         0.0005047740        0.0002547656       -0.0001798473
Ti         0.0001933735       -0.0007314587        0.0013805556
Ti         0.0013755257        0.0007348853       -0.0070863795
Ti        -0.0003226634       -0.0001997574        0.0004027589
Ti         0.0001511182        0.0002299189       -0.0004788270
Ti         0.0001021189        0.0001030967        0.0000812959
Ti        -0.0002937828        0.0005238114       -0.0007767415
Ti         0.0014523533        0.0003027467        0.0000637443
Ti         0.0020141717       -0.0030817088       -0.0021362298
Ti        -0.0001177770       -0.0001061442        0.0031039622
Ti        -0.0005331022       -0.0013205063        0.0004070717
Ti         0.0011192497        0.0006970022       -0.0004224821
Ti        -0.0002417045       -0.0006028292       -0.0006935636
Ti        -0.0174940404        0.0024313990       -0.0050020460
Ti         0.0001775697        0.0007917830       -0.0004927209
Ti        -0.0019218169        0.0021333876       -0.0024374354
Ti         0.0008472064       -0.0008119455       -0.0004044583
Ti        -0.0004496679       -0.0040071594        0.0037459469
Ti        -0.0001853359        0.0002547095        0.0266132270
Ti        -0.0006168852       -0.0010384701        0.0004896099
Ti         0.0004677584       -0.0000840199        0.0002331119
Ti        -0.0012155091        0.0003039263        0.0002312038
Ti         0.0002970169       -0.0011672508       -0.0016109354
Ti         0.0006426607        0.0002133656        0.0004726467
Ti        -0.0015354783       -0.0014294862       -0.0011792157
Ti         0.0058491098       -0.0012687809        0.0032178802
Ti         0.0219425288       -0.0044545256       -0.0062439795
Ti         0.0015506217       -0.0009938896       -0.0006366743
O        -0.0007503608       -0.0002794071        0.0001793296
O        -0.0004045318       -0.0002643147        0.0003979918
O         0.0005144449        0.0002378983        0.0000621281
O         0.0009170755        0.0007053578       -0.0003079833
O        -0.0004864310       -0.0005920672       -0.0003329718
O        -0.0003894545       -0.0001218138       -0.0002375320
O         0.0006786911        0.0007684675        0.0002995608
O         0.0005642914        0.0004635119       -0.0000378773
O        -0.0002776502        0.0002316980        0.0001162950
O        -0.0011277630       -0.0008821083       -0.0005284793
O        -0.0002092220       -0.0001042246        0.0001618436
O        -0.0005709207        0.0007887647       -0.0008147490
O        -0.0003863032        0.0003705512       -0.0004078908
O        -0.0015700342       -0.0004074574        0.0001077869
O        -0.0001569569        0.0002547682        0.0009324794
O        -0.0002021068        0.0002318038       -0.0001852151
O         0.0004104489        0.0007463303        0.0011752726
O        -0.0000797615        0.0000433656       -0.0001592683
O        -0.0000595943        0.0002394549        0.0001904800
O         0.0003465576        0.0005529898       -0.0008234853
O        -0.0007441910        0.0008571930        0.0000682944
O        -0.0030353646       -0.0007345296       -0.0010130695
O        -0.0005063743        0.0005902850        0.0000649158
O        -0.0014403469       -0.0012181302        0.0016602645
O        -0.0013221621        0.0008113467       -0.0005931570
O        -0.0011540341        0.0001290663       -0.0016415575
O        -0.0005747785       -0.0002220076       -0.0007215596
O        -0.0005963301        0.0003320677       -0.0001009790
O        -0.0006968232        0.0017495202        0.0001911920
O        -0.0018725838       -0.0001338021        0.0010179628
O        -0.0006611796       -0.0004440829        0.0003403127
O        -0.0007017662        0.0006193035        0.0004505505
O         0.0000185297       -0.0083107045        0.0028962127
O        -0.0000096679       -0.0001688375        0.0001013891
O         0.0006623443       -0.0003151470        0.0003976715
O         0.0025675853        0.0002325534       -0.0006409615
O        -0.0001279254       -0.0001799643        0.0000588350
O        -0.0002878494        0.0011730841       -0.0015389478
O         0.0010664114       -0.0005396266       -0.0002489504
O         0.0013122628        0.0002119097       -0.0007278758
O         0.0002775616       -0.0002335786       -0.0002161762
O         0.0001977989       -0.0020163716       -0.0013350305
O         0.0000524198       -0.0002716547        0.0010629558
O         0.0001938057       -0.0003123795        0.0001240005
O         0.0004286307       -0.0002578089       -0.0000506864
O         0.0004324177        0.0008603243        0.0002696756
O         0.0004439105       -0.0001631569       -0.0000492928
O         0.0021931455        0.0017671853       -0.0003173600
O        -0.0003153254        0.0003976472        0.0011991735
O        -0.0001878271       -0.0004847606       -0.0003500049
O        -0.0000431390       -0.0004985916        0.0005104306
O        -0.0009020736        0.0018189560       -0.0037731598
O         0.0000990433        0.0001821763        0.0000813526
O        -0.0009095175        0.0006370056        0.0020420303
O        -0.0001036588       -0.0019070006        0.0014131074
O        -0.0006475817        0.0003945526       -0.0008133155
O         0.0004157471       -0.0006454452        0.0002032393
O        -0.0000906080        0.0014622786       -0.0012215960
O         0.0010949362        0.0010253307        0.0060785470
O        -0.0003183171       -0.0000950991       -0.0006011767
O         0.0004896499       -0.0023275070        0.0000397486
O         0.0005142627        0.0002140209        0.0001065688
O         0.0002626532        0.0001713779        0.0010151430
O         0.0000960494       -0.0015105864       -0.0002605220
O        -0.0002829010        0.0017218197        0.0004743036
O         0.0012052099       -0.0006179405       -0.0005992801
O        -0.0001093639       -0.0001714390        0.0001376906
O         0.0007221045        0.0040237260       -0.0010977687
O         0.0011575117        0.0004454730       -0.0000069331
O         0.0008514912       -0.0063475721        0.0004038490
O         0.0004051969       -0.0004583347        0.0005030338
O         0.0004699475        0.0002873710       -0.0007562525
O        -0.0001887664       -0.0001956926        0.0003698561
O        -0.0014651780        0.0002616838       -0.0011564571
O        -0.0014671947        0.0033731534        0.0007695642
O        -0.0002090546       -0.0003273402       -0.0001426087
O         0.0030678432       -0.0107131708        0.0054092836
O         0.0001399908        0.0005222570       -0.0002528899
O        -0.0004839849        0.0005701362        0.0005473220
O         0.0001712043       -0.0005374675       -0.0008006075
O         0.0000260053        0.0064025359        0.0024164880
O        -0.0000373288        0.0001435687       -0.0007507647
O        -0.0008499991       -0.0022931833       -0.0003438841
O        -0.0020960138        0.0005873489        0.0006628560
O         0.0001171450        0.0005536025        0.0004479281
O        -0.0030014981       -0.0012461549        0.0031657893
O        -0.0008905980       -0.0004590389        0.0000160366
O        -0.0012686052        0.0011018156        0.0007424578
O         0.0015474699        0.0004192658        0.0011703665
O        -0.0006374767        0.0063920076        0.0003425048
O         0.0001014880        0.0004464229       -0.0132086068
O         0.0023361982        0.0011640017       -0.0008822281
O        -0.0007247459       -0.0004503096       -0.0003520789
O        -0.0007860155        0.0023778764       -0.0002164068
O        -0.0005918707       -0.0005166360        0.0009168300
O        -0.0014726965        0.0009288594       -0.0003800945
O         0.0001483316       -0.0011574590        0.0013157811
O         0.0003412800       -0.0001712532        0.0003769033
O        -0.0010466414       -0.0004654392        0.0021845490
O         0.0018794110       -0.0005438890        0.0006941760
O         0.0003342324       -0.0004923999       -0.0003934464
O         0.0002479818       -0.0012425021       -0.0013049354
O         0.0119125705       -0.0032953175       -0.0028311353
O         0.0008409311       -0.0004138608       -0.0006659477
O        -0.0000861435        0.0058286971        0.0020755129
O         0.0006859231       -0.0009145119       -0.0001438791
O         0.0008914973        0.0001859270        0.0022699838
O        -0.0002000810       -0.0019112495       -0.0039556529
O         0.0003781166        0.0003849113       -0.0002850087
O         0.0014685967       -0.0000316401       -0.0005236292
O        -0.0034816405       -0.0001558930       -0.0126013156
O        -0.0007317951       -0.0002272828       -0.0008529447
O         0.0009479303       -0.0011018833        0.0006187401
O        -0.0002403290       -0.0000372077       -0.0015555985
O        -0.0002808017       -0.0001692772        0.0009583324
O         0.0048132017       -0.0022569533       -0.0044513656
O         0.0008880989        0.0008115197       -0.0002007720
O        -0.0020852955       -0.0087254772        0.0024033549
O         0.0008966525        0.0006568724        0.0003163614
O         0.0004580547       -0.0014936128        0.0002981746
O        -0.0039308262        0.0105784584        0.0023702229
O         0.0009189833        0.0003516318       -0.0018232460
O        -0.0061627323        0.0012584084       -0.0043458359
O        -0.0015566580       -0.0002142210       -0.0007226866
O         0.0009795325        0.0019249437        0.0013343445
O         0.0025306007        0.0020049625        0.0028352826
O        -0.0138249856        0.0020872685       -0.0030243212
O        -0.0013699809       -0.0010321051        0.0042738881
     192
 i =        8, E =     -5772.8868470556
Ti         0.0003079004       -0.0003844050        0.0004307638
Ti         0.0001893966       -0.0003959995       -0.0007011161
Ti         0.0002558142       -0.0004652217        0.0001800750
Ti        -0.0001713139       -0.0001920305       -0.0001103156
Ti         0.0001800579       -0.0000338827        0.0003374403
Ti         0.0011720467        0.0002560555       -0.0021990749
Ti         0.0001839708       -0.0001296061        0.0001652794
Ti        -0.0002141031        0.0002714255        0.0005854617
Ti        -0.0004028869       -0.0001777954       -0.0001732785
Ti         0.0024145832       -0.0000208874        0.0000711373
Ti         0.0000018347       -0.0004437849       -0.0020337955
Ti         0.0002151137        0.0000926258        0.0003288864
Ti        -0.0002625416       -0.0023877577       -0.0009330803
Ti        -0.0000019566       -0.0001855682       -0.0003481626
Ti         0.0000859706        0.0002660360        0.0000755011
Ti         0.0000406461        0.0010370917        0.0015261844
Ti         0.0008138880       -0.0003015602       -0.0004911353
Ti         0.0011144984        0.0004464852        0.0010225585
Ti         0.0001865020       -0.0000264364       -0.0003518562
Ti        -0.0008375317        0.0008163449        0.0009264985
Ti        -0.0001195967        0.0001833714        0.0010355539
Ti        -0.0007683488       -0.0001246691        0.0027372056
Ti        -0.0003171296       -0.0016835602        0.0015709677
Ti         0.0000814730        0.0002842707        0.0000642410
Ti         0.0000812480       -0.0001780766       -0.0001899965
Ti        -0.0012589221        0.0002323004       -0.0018714670
Ti        -0.0003951846       -0.0002167929       -0.0008350328
Ti        -0.0001493107       -0.0001324612       -0.0000799045
Ti        -0.0002900202        0.0000159266       -0.0007628166
Ti         0.0004026764        0.0002459621       -0.0002238767
Ti        -0.0008482278       -0.0001893390       -0.0001243387
Ti         0.0005541317        0.0042141567        0.0027081407
Ti        -0.0001144994       -0.0002011859       -0.0000066841
Ti         0.0015231068       -0.0086897973       -0.0028245082
Ti         0.0002499575       -0.0002755874       -0.0028420332
Ti         0.0008038430        0.0002914569        0.0009898829
Ti         0.0003908131        0.0003303917       -0.0004600919
Ti         0.0002400503       -0.0002199202        0.0005034211
Ti         0.0009559616        0.0008140656        0.0090374029
Ti        -0.0001760624       -0.0001737601       -0.0001683720
Ti        -0.0006571181        0.0004115280       -0.0035055939
Ti         0.0002327659        0.0001867224        0.0003486040
Ti         0.0002417925        0.0008426106        0.0000981222
Ti         0.0021621748        0.0005250424        0.0014142716
Ti         0.0013174498        0.0013553892       -0.0005348182
Ti         0.0002528346       -0.0000543429        0.0026189029
Ti        -0.0016788454        0.0069810801       -0.0015145190
Ti        -0.0001698242        0.0006680924        0.0000444117
Ti        -0.0000523482       -0.0006762766        0.0000122434
Ti        -0.0042803293        0.0145817224       -0.0040186030
Ti        -0.0010808113       -0.0004663880       -0.0014377537
Ti        -0.0027397696       -0.0007732999       -0.0005240434
Ti         0.0036390728       -0.0001240052       -0.0020167018
Ti        -0.0005620225       -0.0038362082        0.0024760978
Ti        -0.0003586395        0.0003618769        0.0100793325
Ti         0.0000138554       -0.0003246872        0.0008260671
Ti         0.0000808606        0.0000610997        0.0000206550
Ti        -0.0039801278        0.0007160315        0.0015499551
Ti         0.0000814660        0.0015943887       -0.0007434648
Ti        -0.0011139046        0.0007878327       -0.0004977537
Ti        -0.0014739288       -0.0004563507        0.0067567663
Ti         0.0008369668        0.0000954561        0.0039384896
Ti         0.0062693903       -0.0082835303       -0.0026689955
Ti         0.0003251539       -0.0007769194        0.0008418370
O         0.0001884420        0.0013851569       -0.0001969330
O         0.0000157586       -0.0000183596       -0.0001605621
O        -0.0001280088       -0.0001526507        0.0001031487
O        -0.0007420737        0.0001100871       -0.0000842357
O        -0.0003405043        0.0021548682        0.0005757865
O         0.0001360834        0.0001318085        0.0000420506
O        -0.0005512710       -0.0004474657       -0.0003069983
O        -0.0001624712       -0.0001408729       -0.0000746301
O        -0.0000280833        0.0001217440       -0.0001344180
O         0.0002135539       -0.0002724352        0.0001842889
O         0.0001025785        0.0001657612        0.0001086896
O         0.0002295856        0.0000476818       -0.0004553177
O        -0.0001504793        0.0000278272        0.0004493945
O         0.0008701059        0.0000648050       -0.0005135995
O         0.0000976735        0.0000810192       -0.0004428141
O         0.0000300538       -0.0000262665       -0.0000062671
O         0.0001039943       -0.0001789541        0.0002905149
O        -0.0003214260        0.0000360382        0.0000955244
O        -0.0006420118        0.0000861047       -0.0002556201
O         0.0000075347       -0.0003105650        0.0000304137
O         0.0001158019        0.0005765130       -0.0000568005
O         0.0014157456       -0.0006284140        0.0002435504
O         0.0002846107        0.0002604268       -0.0001414683
O         0.0001670521       -0.0005846422        0.0002321935
O         0.0003647671       -0.0001517567       -0.0000048011
O         0.0003162140       -0.0001499689       -0.0009271910
O        -0.0000223893        0.0003537625        0.0002816708
O         0.0003504878        0.0000460108       -0.0004201736
O        -0.0003455039        0.0000280082        0.0005812208
O         0.0011283625       -0.0004797824        0.0002577452
O         0.0002578494        0.0005235131       -0.0001954268
O        -0.0001561755       -0.0001921940        0.0001919881
O        -0.0000384144        0.0011322145        0.0011930520
O        -0.0000316723        0.0000108303        0.0000002192
O        -0.0001484120        0.0000101693       -0.0000906430
O        -0.0042835628        0.0001592444       -0.0015937459
O         0.0000004083        0.0003418303        0.0001259074
O        -0.0000837961       -0.0005460693       -0.0000849437
O        -0.0016785091        0.0003164588       -0.0001352171
O         0.0004890402       -0.0000259964       -0.0004606001
O        -0.0001217014       -0.0000284838        0.0000314310
O         0.0001049717        0.0020970601        0.0007158367
O        -0.0000100159        0.0000304818        0.0001510451
O         0.0000429430        0.0003048135       -0.0000353686
O        -0.0005068778        0.0000133572       -0.0003172257
O        -0.0007303088       -0.0005811153        0.0001814996
O        -0.0000406325        0.0000268847       -0.0000029693
O        -0.0046273400        0.0016239404        0.0017117715
O         0.0002095717       -0.0008401144        0.0000466484
O         0.0000789865       -0.0001467746        0.0000084722
O         0.0003256460        0.0001202478        0.0001310005
O         0.0019674016       -0.0001767902       -0.0037277620
O        -0.0000915933        0.0000748133        0.0001744640
O        -0.0000205022        0.0030553614       -0.0005238613
O        -0.0020677755       -0.0027053124        0.0012037104
O        -0.0003435478       -0.0001429999       -0.0000215934
O        -0.0002447798       -0.0002271978       -0.0001268339
O        -0.0000044646       -0.0007241663        0.0002854864
O         0.0007821602       -0.0003311537        0.0004386014
O         0.0002918667       -0.0001459135        0.0003707907
O         0.0000061642       -0.0019309354        0.0008947882
O        -0.0002976257       -0.0003222995       -0.0000893397
O        -0.0010983400        0.0001520036       -0.0006849578
O        -0.0007702489       -0.0001884241        0.0006346488
O         0.0000998684        0.0016045412        0.0010128276
O        -0.0004964588        0.0001846952        0.0002447659
O        -0.0000535382       -0.0000399143       -0.0002065162
O        -0.0004594431       -0.0007824426        0.0026495611
O        -0.0007850253        0.0003254387       -0.0003290224
O        -0.0003748540        0.0004375450        0.0012289744
O         0.0000884695        0.0001312905        0.0001703066
O        -0.0013864153        0.0000694044        0.0003709028
O         0.0000710216       -0.0000848729        0.0003155160
O         0.0004056747       -0.0001040419       -0.0008386054
O         0.0031368008        0.0039618252        0.0019459314
O         0.0000949243        0.0001142943       -0.0000917590
O        -0.0000356214       -0.0057864622       -0.0021863260
O        -0.0001475270        0.0002569848        0.0000493870
O         0.0000940731       -0.0003369108       -0.0001333810
O         0.0001025808        0.0000820820       -0.0003539534
O         0.0013476548       -0.0005837126       -0.0001515421
O        -0.0000620386        0.0000088720       -0.0003726861
O         0.0002333512       -0.0007544298        0.0018199885
O         0.0016948226        0.0002374644       -0.0001716032
O        -0.0002193306        0.0001444378        0.0004023557
O        -0.0017987123       -0.0035698014       -0.0020209222
O         0.0026155613        0.0004580699        0.0007937107
O        -0.0006204802       -0.0001948708       -0.0002565060
O        -0.0010798407        0.0001902809        0.0004551631
O         0.0004701727        0.0006113656        0.0011216924
O         0.0000215524        0.0000163406       -0.0074341808
O        -0.0012658907        0.0010745515        0.0002945534
O         0.0002941268       -0.0000574829       -0.0001091834
O         0.0008238123       -0.0013285884        0.0008207151
O        -0.0000832668        0.0000973924        0.0000969764
O         0.0011819024       -0.0012236982       -0.0001626709
O        -0.0000521979        0.0021853985       -0.0002114205
O         0.0000077788        0.0000673839       -0.0001293916
O        -0.0003439201        0.0005211072        0.0011709037
O        -0.0023317285       -0.0003572510       -0.0003606336
O         0.0002431063        0.0005017942        0.0004257838
O         0.0002539040        0.0006627861        0.0003101154
O         0.0023629470        0.0001703909       -0.0018809807
O         0.0001797989        0.0000402537        0.0001116462
O        -0.0000055795       -0.0016213364        0.0005579058
O         0.0000262365       -0.0004155648       -0.0000530896
O        -0.0000554193       -0.0003046000        0.0009360031
O        -0.0012411450       -0.0000752949       -0.0026798421
O         0.0001494291       -0.0007698694        0.0002857911
O         0.0004907522       -0.0008343980       -0.0003826593
O        -0.0022754867       -0.0009645184       -0.0137865698
O        -0.0004597598        0.0000197702       -0.0001874948
O         0.0005440531       -0.0000454688       -0.0002605081
O        -0.0010731124       -0.0000593679       -0.0000386202
O         0.0000664053       -0.0001806393       -0.0007094085
O         0.0012588165        0.0000463596        0.0028044083
O        -0.0001572773        0.0007547720        0.0002026568
O        -0.0002544806        0.0014501515        0.0000769685
O         0.0002972514       -0.0004430301       -0.0004363889
O         0.0001642152        0.0002873719        0.0002082790
O         0.0014624133        0.0033128471       -0.0042066616
O        -0.0002073565        0.0000639004       -0.0011238413
O         0.0000269021       -0.0000244897        0.0013047305
O         0.0027927865       -0.0000893582       -0.0007331683
O        -0.0000085849        0.0012975900        0.0000521043
O         0.0033226574        0.0014327240       -0.0018499163
O        -0.0056185825       -0.0007244283       -0.0028681329
O        -0.0008644327        0.0000914446       -0.0005978613
     192
 i =        9, E =     -5772.8900170257
Ti         0.0009148137       -0.0002141455        0.0003052646
Ti         0.0005688890       -0.0009244099       -0.0001786917
Ti         0.0006765536       -0.0007600820       -0.0000205146
Ti         0.0003003660       -0.0001452209       -0.0002975059
Ti         0.0005296972       -0.0001539922        0.0000744528
Ti         0.0018139233        0.0001913463       -0.0023405589
Ti        -0.0002616726        0.0000958019        0.0000218884
Ti        -0.0002972296        0.0001596204       -0.0000930846
Ti         0.0000329811       -0.0001304785       -0.0002972402
Ti         0.0032242270        0.0002759545        0.0007969485
Ti        -0.0001879951       -0.0002738626       -0.0009226819
Ti        -0.0002759124       -0.0000206483       -0.0000383197
Ti        -0.0000916532       -0.0034903090        0.0008902303
Ti         0.0000163851       -0.0001999406       -0.0001942063
Ti         0.0000545789        0.0000909236        0.0001264143
Ti         0.0003475225        0.0001129156        0.0006606983
Ti         0.0011564580        0.0002163083       -0.0001704145
Ti         0.0025425538        0.0004030287       -0.0000383288
Ti         0.0006671906       -0.0000476252        0.0000997727
Ti         0.0006485374        0.0006899705        0.0018331220
Ti         0.0012612587        0.0001379988        0.0000181975
Ti         0.0019018990       -0.0000064273        0.0030752867
Ti        -0.0005933121       -0.0005414343        0.0001890328
Ti        -0.0002400802       -0.0000020790        0.0001345395
Ti         0.0003498545       -0.0001326062        0.0001338873
Ti        -0.0010081819        0.0003148346       -0.0013234980
Ti        -0.0005729878        0.0003747959       -0.0002001516
Ti        -0.0003514634       -0.0001904622        0.0008391176
Ti         0.0001759490        0.0001038152        0.0006416695
Ti         0.0004735942       -0.0000350199       -0.0005105722
Ti        -0.0016473909       -0.0001272520        0.0004208974
Ti        -0.0004715224        0.0024123436        0.0001095646
Ti        -0.0001206981       -0.0001415281        0.0000079312
Ti         0.0010014751       -0.0120321316       -0.0038999538
Ti         0.0002474231        0.0007868138       -0.0013155447
Ti        -0.0012543302        0.0002295749        0.0000341453
Ti        -0.0005105111       -0.0001664256        0.0000951729
Ti         0.0002970169       -0.0002344535       -0.0003086740
Ti         0.0005202929       -0.0001975132        0.0116598350
Ti        -0.0003090277       -0.0001134261       -0.0003142282
Ti        -0.0009770706       -0.0010895582       -0.0025548246
Ti        -0.0004796091        0.0000182248        0.0001798768
Ti         0.0001441424        0.0010077457        0.0003877696
Ti         0.0019108176        0.0003366578        0.0008797213
Ti         0.0009002448        0.0035723820        0.0007944296
Ti         0.0001782507        0.0001744397        0.0023099737
Ti        -0.0008006176        0.0063362973       -0.0020105704
Ti        -0.0006135795        0.0007014552        0.0006878707
Ti        -0.0001327519       -0.0007381580        0.0003115837
Ti         0.0033111547        0.0134022130       -0.0023326815
Ti        -0.0013076422       -0.0001559203       -0.0011967638
Ti        -0.0015304482       -0.0018664576        0.0012371279
Ti         0.0020927577       -0.0000212183       -0.0014603188
Ti        -0.0000353007       -0.0018229373       -0.0009212807
Ti        -0.0002908469        0.0001535131        0.0032367190
Ti        -0.0017128874        0.0000311992        0.0000652384
Ti        -0.0003703124       -0.0000356059       -0.0001804315
Ti        -0.0032728561       -0.0009433656        0.0006926933
Ti        -0.0000372666        0.0014675998        0.0008098124
Ti        -0.0015012815       -0.0005719308       -0.0004787397
Ti        -0.0003105223        0.0008415250        0.0067149083
Ti        -0.0019161255        0.0003279910        0.0033863033
Ti        -0.0029956697       -0.0049366914        0.0001624192
Ti        -0.0004065833       -0.0003902483        0.0012633463
O        -0.0003243721        0.0007607178       -0.0003192063
O         0.0000379952        0.0006041305        0.0001153054
O        -0.0005171294        0.0001443261       -0.0001228737
O        -0.0009292284       -0.0000445832        0.0000029268
O         0.0000126833        0.0011208556        0.0004609141
O        -0.0000839315        0.0004328089       -0.0000352433
O        -0.0008078638        0.0000187707       -0.0001355251
O        -0.0005250593       -0.0000831600       -0.0000971839
O        -0.0000319594        0.0002072061       -0.0001510853
O         0.0003071210        0.0005429639        0.0004541324
O         0.0003792922       -0.0000682849       -0.0001405090
O         0.0006135456       -0.0000881964       -0.0002860800
O        -0.0000872166       -0.0000113344        0.0002732355
O        -0.0000795995        0.0001825093       -0.0001424718
O         0.0001869489       -0.0000687988        0.0001381818
O         0.0001903643        0.0000331351       -0.0000681339
O        -0.0001478905       -0.0001419900        0.0002470309
O        -0.0002730825        0.0000531876        0.0001349623
O        -0.0002833931       -0.0000684373       -0.0000255869
O        -0.0003651803        0.0000169136       -0.0002507036
O         0.0000834100        0.0000029952       -0.0000396212
O         0.0003855629       -0.0004232856        0.0002328278