#     Step Nr.          Time[fs]        Kin.[a.u.]          Temp[K]            Pot.[a.u.]        Cons Qty[a.u.]        UsedTime[s]
     77474        73187.000000         0.111630241       500.000000000     -1445.981489122     -1445.869858881        30.248896239
     77475        73188.000000         0.111226619       498.192148247     -1445.981090589     -1445.869863970         4.413469006
     77476        73189.000000         0.110602819       495.398100385     -1445.980470401     -1445.869867583         3.624239889
     77477        73190.000000         0.109724838       491.465560043     -1445.979586368     -1445.869861530         3.273089087
     77478        73191.000000         0.111630241       500.000000000     -1445.978473174     -1445.866842933         3.334433255
     77479        73192.000000         0.110365670       494.335894730     -1445.977201407     -1445.866835737         3.282359664
     77480        73193.000000         0.111630241       500.000000000     -1445.975881994     -1445.864251753         3.283428831
     77481        73194.000000         0.110314253       494.105594542     -1445.974560180     -1445.864245927         3.322493275
     77482        73195.000000         0.111630241       500.000000000     -1445.973312923     -1445.861682682         3.278974256
     77483        73196.000000         0.110499308       494.934468119     -1445.972183517     -1445.861684209         3.280095885
     77484        73197.000000         0.109501079       490.463328598     -1445.971190461     -1445.861689382         3.339455269
     77485        73198.000000         0.111630241       500.000000000     -1445.970317003     -1445.858686762         3.282748538
     77486        73199.000000         0.110904612       496.749853370     -1445.969581324     -1445.858676713         3.285416030
     77487        73200.000000         0.110423532       494.595063071     -1445.969098921     -1445.858675389         3.288626573
     77488        73201.000000         0.110216318       493.666938525     -1445.968902962     -1445.858686644         3.277549696
     77489        73202.000000         0.110161258       493.420318586     -1445.968861650     -1445.858700392         3.355933958
     77490        73203.000000         0.110117872       493.225989596     -1445.968816943     -1445.858699071         3.286532070
     77491        73204.000000         0.110064258       492.985848128     -1445.968755715     -1445.858691457         3.279140875
     77492        73205.000000         0.110040369       492.878847689     -1445.968731847     -1445.858691478         3.288105745
     77493        73206.000000         0.110007024       492.729495309     -1445.968709368     -1445.858702343         3.282310688
     77494        73207.000000         0.109810577       491.849592834     -1445.968529005     -1445.858718428         3.289608967
     77495        73208.000000         0.111630241       500.000000000     -1445.967976020     -1445.856345779         3.289149805
     77496        73209.000000         0.110553337       495.176468386     -1445.966892019     -1445.856338682         3.306592553
     77497        73210.000000         0.111630241       500.000000000     -1445.965314617     -1445.853684377         3.285427722
     77498        73211.000000         0.109651737       491.138137742     -1445.963329765     -1445.853678028         3.280236124
     77499        73212.000000         0.111630241       500.000000000     -1445.960993400     -1445.849363159         3.300909211
     77500        73213.000000         0.111630241       500.000000000     -1445.958178633     -1445.846548392         7.974087102
     77501        73214.000000         0.111630241       500.000000000     -1445.954868720     -1445.843238479         3.256021641
     77502        73215.000000         0.111630241       500.000000000     -1445.951189093     -1445.839558852         3.246372718
     77503        73216.000000         0.111630241       500.000000000     -1445.947340344     -1445.835710103         3.242344119
     77504        73217.000000         0.111630241       500.000000000     -1445.943498232     -1445.831867991         3.320058378
     77505        73218.000000         0.111630241       500.000000000     -1445.939787848     -1445.828157607         3.241322180
     77506        73219.000000         0.111630241       500.000000000     -1445.936347307     -1445.824717066         3.242307689
     77507        73220.000000         0.111630241       500.000000000     -1445.933356762     -1445.821726521         3.271398037
     77508        73221.000000         0.111630241       500.000000000     -1445.930999722     -1445.819369482         3.250172551
     77509        73222.000000         0.110041646       492.884566462     -1445.929407623     -1445.819365977         3.664818453
     77510        73223.000000         0.111630241       500.000000000     -1445.928658818     -1445.817028577         3.240572434
     77511        73224.000000         0.111718727       500.396336389     -1445.928745847     -1445.817027120         3.238807391
     77512        73225.000000         0.112638017       504.513904133     -1445.929667222     -1445.817029205         3.604880009
     77513        73226.000000         0.111630241       500.000000000     -1445.931408279     -1445.819778038         3.243325450
     77514        73227.000000         0.111630241       500.000000000     -1445.933909418     -1445.822279177         3.296691949
     77515        73228.000000         0.111630241       500.000000000     -1445.937090369     -1445.825460128         3.238553384
     77516        73229.000000         0.111630241       500.000000000     -1445.940793707     -1445.829163467         3.300644454
     77517        73230.000000         0.111630241       500.000000000     -1445.944828502     -1445.833198262         3.236106756
     77518        73231.000000         0.111630241       500.000000000     -1445.949032398     -1445.837402158         3.239249408
     77519        73232.000000         0.111630241       500.000000000     -1445.953268662     -1445.841638421         3.235330829
     77520        73233.000000         0.111630241       500.000000000     -1445.957342251     -1445.845712010         3.281923839
     77521        73234.000000         0.111630241       500.000000000     -1445.961070282     -1445.849440041         3.246442713
     77522        73235.000000         0.111630241       500.000000000     -1445.964413459     -1445.852783218         3.243762036
     77523        73236.000000         0.111630241       500.000000000     -1445.967382714     -1445.855752473         3.252047995
     77524        73237.000000         0.111630241       500.000000000     -1445.969835160     -1445.858204919         3.241730654
     77525        73238.000000         0.113341830       507.666334121     -1445.971550686     -1445.858208855         3.322317817
     77526        73239.000000         0.111630241       500.000000000     -1445.972501068     -1445.860870827         4.447999408
     77527        73240.000000         0.111983266       501.581225618     -1445.972842095     -1445.860858829         3.246277357
     77528        73241.000000         0.111904559       501.228692238     -1445.972756943     -1445.860852383         3.242829460
     77529        73242.000000         0.111503385       499.431803021     -1445.972348914     -1445.860845529         3.246555539
     77530        73243.000000         0.110906946       496.760311142     -1445.971742186     -1445.860835240         3.320146748
     77531        73244.000000         0.110272057       493.916597283     -1445.971097621     -1445.860825563         3.248779120
     77532        73245.000000         0.109744111       491.551887104     -1445.970563873     -1445.860819762         3.240717512
     77533        73246.000000         0.109434335       490.164379196     -1445.970249939     -1445.860815604         4.718437175
     77534        73247.000000         0.109439426       490.187181924     -1445.970248831     -1445.860809404         3.305702897
     77535        73248.000000         0.109859616       492.069241865     -1445.970663175     -1445.860803559         3.316758534
     77536        73249.000000         0.110773484       496.162521945     -1445.971574279     -1445.860800796         3.234343998
     77537        73250.000000         0.112215675       502.622203432     -1445.973015680     -1445.860800004         3.427012702
     77538        73251.000000         0.111630241       500.000000000     -1445.974975249     -1445.863345008         3.237964296
     77539        73252.000000         0.111630241       500.000000000     -1445.977354449     -1445.865724208         3.244314956
     77540        73253.000000         0.111630241       500.000000000     -1445.979993896     -1445.868363655         3.283090132
     77541        73254.000000         0.111630241       500.000000000     -1445.982681093     -1445.871050853         3.243497059
     77542        73255.000000         0.111630241       500.000000000     -1445.985246455     -1445.873616214         3.240996276
     77543        73256.000000         0.111630241       500.000000000     -1445.987587718     -1445.875957477         3.271191511
     77544        73257.000000         0.113631701       508.964686617     -1445.989597386     -1445.875965684         3.247213840
     77545        73258.000000         0.111630241       500.000000000     -1445.991167458     -1445.879537217         3.248764815
     77546        73259.000000         0.112629295       504.474835713     -1445.992173304     -1445.879544009         3.345488771
     77547        73260.000000         0.113015048       506.202652401     -1445.992562879     -1445.879547831         3.278876227
     77548        73261.000000         0.112723377       504.896235093     -1445.992274357     -1445.879550981         3.240050334
     77549        73262.000000         0.111751899       500.544917562     -1445.991298433     -1445.879546533         3.261649575
     77550        73263.000000         0.110193981       493.566886812     -1445.989725495     -1445.879531514         3.242823267
     77551        73264.000000         0.111630241       500.000000000     -1445.987750732     -1445.876120491         3.314332365
     77552        73265.000000         0.111630241       500.000000000     -1445.985494259     -1445.873864018         3.290964141
     77553        73266.000000         0.111630241       500.000000000     -1445.983003453     -1445.871373212         3.249893096
     77554        73267.000000         0.111630241       500.000000000     -1445.980300189     -1445.868669948         3.236457698
     77555        73268.000000         0.111630241       500.000000000     -1445.977469016     -1445.865838775         3.247030100
     77556        73269.000000         0.111630241       500.000000000     -1445.974644277     -1445.863014036         3.288505401
     77557        73270.000000         0.111630241       500.000000000     -1445.971902680     -1445.860272439         3.278614045
     77558        73271.000000         0.111630241       500.000000000     -1445.969264429     -1445.857634188         3.242678991
     77559        73272.000000         0.111630241       500.000000000     -1445.966777347     -1445.855147106         3.243257689
     77560        73273.000000         0.109414527       490.075654193     -1445.964550929     -1445.855136402         3.242223999
     77561        73274.000000         0.111630241       500.000000000     -1445.962733998     -1445.851103757         3.615696767
     77562        73275.000000         0.110220683       493.686485622     -1445.961329212     -1445.851108529         3.276327454
     77563        73276.000000         0.111630241       500.000000000     -1445.960300256     -1445.848670015         3.601996873
     77564        73277.000000         0.110844927       496.482521637     -1445.959521115     -1445.848676188         3.240977661
     77565        73278.000000         0.110239712       493.771719407     -1445.958910822     -1445.848671110         3.234287851
     77566        73279.000000         0.109820162       491.892523358     -1445.958488559     -1445.848668397         3.235473743
     77567        73280.000000         0.109584934       490.838921819     -1445.958257098     -1445.848672164         5.473338027
     77568        73281.000000         0.109460149       490.280001376     -1445.958143180     -1445.848683031         3.232265585
     77569        73282.000000         0.111630241       500.000000000     -1445.958009032     -1445.846378791         3.233215115
     77570        73283.000000         0.111338920       498.695150951     -1445.957720853     -1445.846381934         3.626938590
     77571        73284.000000         0.110831571       496.422700072     -1445.957212627     -1445.846381055         3.744494410
     77572        73285.000000         0.110105520       493.170665384     -1445.956479977     -1445.846374457         3.239208800
     77573        73286.000000         0.111630241       500.000000000     -1445.955581178     -1445.843950937         3.246359834
     77574        73287.000000         0.110641808       495.572738322     -1445.954589449     -1445.843947641         3.238771533
     77575        73288.000000         0.109630950       491.045029103     -1445.953578557     -1445.843947607         3.596285078
     77576        73289.000000         0.111630241       500.000000000     -1445.952597398     -1445.840967157         3.251942142
     77577        73290.000000         0.110726837       495.953589879     -1445.951683473     -1445.840956636         3.294415798
     77578        73291.000000         0.110020568       492.790157656     -1445.950968286     -1445.840947718         3.255133007
     77579        73292.000000         0.109642294       491.095841463     -1445.950586195     -1445.840943901         3.246823093
     77580        73293.000000         0.109647280       491.118174161     -1445.950591979     -1445.840944699         3.243649460
     77581        73294.000000         0.110034785       492.853836886     -1445.950980656     -1445.840945870         3.248305884
     77582        73295.000000         0.110796895       496.267383652     -1445.951744718     -1445.840947823         3.323514801
     77583        73296.000000         0.111901902       501.216788687     -1445.952856458     -1445.840954556         3.618786719
     77584        73297.000000         0.113254880       507.276877856     -1445.954217070     -1445.840962190         3.246835216
     77585        73298.000000         0.111630241       500.000000000     -1445.955712434     -1445.844082193         3.260490835
     77586        73299.000000         0.113190644       506.989157661     -1445.957276650     -1445.844086006         3.621569261
     77587        73300.000000         0.111630241       500.000000000     -1445.958866135     -1445.847235894         3.333728774
     77588        73301.000000         0.113107763       506.617929838     -1445.960354462     -1445.847246699         3.278574840
     77589        73302.000000         0.111630241       500.000000000     -1445.961640685     -1445.850010444         3.242318681
     77590        73303.000000         0.112569158       504.205478300     -1445.962586486     -1445.850017328         3.237040275
     77591        73304.000000         0.113096791       506.568786761     -1445.963116273     -1445.850019481         3.353275554
     77592        73305.000000         0.113164797       506.873387798     -1445.963183139     -1445.850018342         3.308162220
     77593        73306.000000         0.112792846       505.207395572     -1445.962808503     -1445.850015657         3.245490168
     77594        73307.000000         0.112030180       501.791357041     -1445.962041444     -1445.850011263         3.239083791
     77595        73308.000000         0.110947205       496.940633772     -1445.960948825     -1445.850001620         3.242036570
     77596        73309.000000         0.109674436       491.239809435     -1445.959660253     -1445.849985817         3.240665903
     77597        73310.000000         0.111630241       500.000000000     -1445.958369584     -1445.846739343         3.265803846
     77598        73311.000000         0.110453712       494.730242134     -1445.957192318     -1445.846738606         3.302892662
     77599        73312.000000         0.109419366       490.097329737     -1445.956161726     -1445.846742360         3.236750049
     77600        73313.000000         0.111630241       500.000000000     -1445.955259651     -1445.843629410         7.962981992
     77601        73314.000000         0.110845977       496.487225939     -1445.954471549     -1445.843625572         3.273901414
     77602        73315.000000         0.110208173       493.630452553     -1445.953834544     -1445.843626372         3.672894859
     77603        73316.000000         0.109719063       491.439696462     -1445.953350448     -1445.843631385         3.228464971
     77604        73317.000000         0.111630241       500.000000000     -1445.952936871     -1445.841306630         3.283419846
     77605        73318.000000         0.111139705       497.802855061     -1445.952453952     -1445.841314247         3.228196296
     77606        73319.000000         0.110469678       494.801755914     -1445.951789262     -1445.841319584         3.230443734
     77607        73320.000000         0.109558197       490.719163472     -1445.950876617     -1445.841318420         3.325839736
     77608        73321.000000         0.111630241       500.000000000     -1445.949714774     -1445.838084533         3.226858583
     77609        73322.000000         0.110276003       493.934271217     -1445.948351456     -1445.838075452         3.227167876
     77610        73323.000000         0.111630241       500.000000000     -1445.946903330     -1445.835273089         3.735368513
     77611        73324.000000         0.110141474       493.331705360     -1445.945411829     -1445.835270355         3.229832021
     77612        73325.000000         0.111630241       500.000000000     -1445.943937752     -1445.832307511         3.653643006
     77613        73326.000000         0.110234326       493.747593884     -1445.942534165     -1445.832299839         3.254356518
     77614        73327.000000         0.111630241       500.000000000     -1445.941333153     -1445.829702912         3.590693362
     77615        73328.000000         0.110750059       496.057600845     -1445.940446131     -1445.829696072         3.241977926
     77616        73329.000000         0.110282858       493.964973770     -1445.939975289     -1445.829692431         3.237164835
     77617        73330.000000         0.110290868       494.000852015     -1445.939981669     -1445.829690801         3.320244504
     77618        73331.000000         0.110787743       496.226389815     -1445.940478435     -1445.829690693         3.237681964
     77619        73332.000000         0.111751018       500.540968702     -1445.941445889     -1445.829694871         3.237102484
     77620        73333.000000         0.113119075       506.668596565     -1445.942820495     -1445.829701420         3.237082806
     77621        73334.000000         0.111630241       500.000000000     -1445.944508030     -1445.832877789         3.240034292
     77622        73335.000000         0.113558705       508.637733366     -1445.946438450     -1445.832879745         3.248624966
     77623        73336.000000         0.111630241       500.000000000     -1445.948597324     -1445.836967083         3.303152049
     77624        73337.000000         0.111630241       500.000000000     -1445.950887818     -1445.839257578         3.612721656
     77625        73338.000000         0.111630241       500.000000000     -1445.953275235     -1445.841644994         3.242185485
     77626        73339.000000         0.111630241       500.000000000     -1445.955703801     -1445.844073560         3.237147040
     77627        73340.000000         0.111630241       500.000000000     -1445.958136831     -1445.846506590         3.762024724
     77628        73341.000000         0.111630241       500.000000000     -1445.960531558     -1445.848901317         3.311749345
     77629        73342.000000         0.111630241       500.000000000     -1445.962826265     -1445.851196024         3.238265022
     77630        73343.000000         0.113796585       509.703211650     -1445.964989902     -1445.851193318         3.241017186
     77631        73344.000000         0.111630241       500.000000000     -1445.967085735     -1445.855455494         3.248271087
     77632        73345.000000         0.113748630       509.488419820     -1445.969198956     -1445.855450326         3.235483272
     77633        73346.000000         0.111630241       500.000000000     -1445.971436676     -1445.859806435         3.251867439
     77634        73347.000000         0.111630241       500.000000000     -1445.973700248     -1445.862070007         3.242403552
     77635        73348.000000         0.113795324       509.697567587     -1445.975876762     -1445.862081438         3.386880082
     77636        73349.000000         0.111630241       500.000000000     -1445.977848807     -1445.866218566         3.237639003
     77637        73350.000000         0.113331173       507.618598958     -1445.979547015     -1445.866215842         3.245374757
     77638        73351.000000         0.111630241       500.000000000     -1445.981052186     -1445.869421945         3.241421380
     77639        73352.000000         0.112965052       505.978714412     -1445.982388459     -1445.869423407         3.305131903
     77640        73353.000000         0.111630241       500.000000000     -1445.983563972     -1445.871933731         3.266097189
     77641        73354.000000         0.112543799       504.091894843     -1445.984486935     -1445.871943136         3.237702554
     77642        73355.000000         0.113115704       506.653497355     -1445.985065941     -1445.871950237         3.237390717
     77643        73356.000000         0.113251120       507.260037198     -1445.985204005     -1445.871952885         3.230340696
     77644        73357.000000         0.112925579       505.801915218     -1445.984873707     -1445.871948127         3.316591584
     77645        73358.000000         0.112186301       502.490634977     -1445.984126499     -1445.871940197         3.226620757
     77646        73359.000000         0.111111841       497.678047736     -1445.983045109     -1445.871933268         3.227353732
     77647        73360.000000         0.109774909       491.689833616     -1445.981703553     -1445.871928644         3.236494520
     77648        73361.000000         0.111630241       500.000000000     -1445.980157488     -1445.868527247         3.228032653
     77649        73362.000000         0.109895364       492.229360068     -1445.978417933     -1445.868522569         3.339775252
     77650        73363.000000         0.111630241       500.000000000     -1445.976565830     -1445.864935589         3.248438928
     77651        73364.000000         0.109712995       491.412517128     -1445.974641807     -1445.864928812         3.231176549
     77652        73365.000000         0.111630241       500.000000000     -1445.972743983     -1445.861113742         3.588862523
     77653        73366.000000         0.109785065       491.735322968     -1445.970894867     -1445.861109802         3.230053126
     77654        73367.000000         0.111630241       500.000000000     -1445.969181849     -1445.857551608         3.588629606
     77655        73368.000000         0.110110886       493.194698597     -1445.967655276     -1445.857544390         3.283569812
     77656        73369.000000         0.111630241       500.000000000     -1445.966425337     -1445.854795096         3.228192029
     77657        73370.000000         0.110728146       495.959449750     -1445.965523957     -1445.854795811         3.223067879
     77658        73371.000000         0.110150565       493.372421990     -1445.964949527     -1445.854798962         3.223602133
     77659        73372.000000         0.109866373       492.099506634     -1445.964666740     -1445.854800367         3.287122411
     77660        73373.000000         0.109840044       491.981577071     -1445.964642469     -1445.854802425         3.299083582
     77661        73374.000000         0.110039713       492.875910785     -1445.964845234     -1445.854805520         3.223326755
     77662        73375.000000         0.110428031       494.615213591     -1445.965238301     -1445.854810270         3.229957452
     77663        73376.000000         0.110959313       496.994864012     -1445.965772033     -1445.854812720         3.219555218
     77664        73377.000000         0.111606331       499.892905642     -1445.966417000     -1445.854810669         3.225788943
     77665        73378.000000         0.112386571       503.387660114     -1445.967192793     -1445.854806221         3.305214872
     77666        73379.000000         0.113335908       507.639808551     -1445.968143104     -1445.854807196         3.222460826
     77667        73380.000000         0.111630241       500.000000000     -1445.969250483     -1445.857620243         3.227124543
     77668        73381.000000         0.112757683       505.049893891     -1445.970387982     -1445.857630300         3.262806252
     77669        73382.000000         0.113832707       509.865007855     -1445.971461243     -1445.857628536         3.234235340
     77670        73383.000000         0.111630241       500.000000000     -1445.972465949     -1445.860835708         3.235446011
     77671        73384.000000         0.112626930       504.464245007     -1445.973461811     -1445.860834881         3.334319486
     77672        73385.000000         0.113646955       509.033011115     -1445.974486837     -1445.860839881         3.236269898
     77673        73386.000000         0.111630241       500.000000000     -1445.975481528     -1445.863851288         3.238759380
     77674        73387.000000         0.112577074       504.240934008     -1445.976425797     -1445.863848723         3.245318419
     77675        73388.000000         0.113529382       508.506390025     -1445.977374356     -1445.863844974         3.249924115
     77676        73389.000000         0.111630241       500.000000000     -1445.978352018     -1445.866721777         5.439935114
     77677        73390.000000         0.112620706       504.436366216     -1445.979349204     -1445.866728498         3.228225844
     77678        73391.000000         0.113580658       508.736059383     -1445.980316696     -1445.866736038         3.229995535
     77679        73392.000000         0.111630241       500.000000000     -1445.981162479     -1445.869532239         3.229002652
     77680        73393.000000         0.112351430       503.230260081     -1445.981876846     -1445.869525416         3.231983524
     77681        73394.000000         0.113040730       506.317684254     -1445.982555419     -1445.869514689         3.343622125
     77682        73395.000000         0.113782534       509.640280345     -1445.983294992     -1445.869512458         3.237893991
     77683        73396.000000         0.111630241       500.000000000     -1445.984124684     -1445.872494443         3.239250150
     77684        73397.000000         0.112476822       503.791899352     -1445.984979002     -1445.872502180         3.260604504
     77685        73398.000000         0.113264755       507.321106163     -1445.985773176     -1445.872508421         3.233547270
     77686        73399.000000         0.111630241       500.000000000     -1445.986409820     -1445.874779579         3.433935758
     77687        73400.000000         0.112052958       501.893382306     -1445.986833349     -1445.874780391         3.234761398
     77688        73401.000000         0.112261611       502.827954013     -1445.987041026     -1445.874779415         3.233006554
     77689        73402.000000         0.112245389       502.755295175     -1445.987024769     -1445.874779379         3.253083130
     77690        73403.000000         0.112014214       501.719841888     -1445.986791064     -1445.874776850         3.235915339
     77691        73404.000000         0.111606312       499.892820773     -1445.986378564     -1445.874772252         3.240528930
     77692        73405.000000         0.111075167       497.513781478     -1445.985844528     -1445.874769361         3.337312703
     77693        73406.000000         0.110462537       494.769767667     -1445.985232564     -1445.874770028         3.243105989
     77694        73407.000000         0.109784182       491.731365991     -1445.984556586     -1445.874772404         3.245624076
     77695        73408.000000         0.111630241       500.000000000     -1445.983812379     -1445.872182138         3.322596641
     77696        73409.000000         0.110776754       496.177170732     -1445.982962654     -1445.872185900         3.804773276
     77697        73410.000000         0.109807109       491.834060112     -1445.981991857     -1445.872184747         3.317732109
     77698        73411.000000         0.111630241       500.000000000     -1445.980928199     -1445.869297959         3.267652851
     77699        73412.000000         0.110470959       494.807493100     -1445.979770443     -1445.869299484         3.259255948
     77700        73413.000000         0.111630241       500.000000000     -1445.978513117     -1445.866882876         7.190477725
     77701        73414.000000         0.110234051       493.746364124     -1445.977114026     -1445.866879975         3.340925246