     192
 i =        1, E =     -5773.9485408811
Ti         0.0006489179        0.0006451316        0.0000002425
Ti        -0.0008911087       -0.0008896396        0.0000004641
Ti         0.0006475254       -0.0009140575       -0.0006075524
Ti        -0.0009165543        0.0006486488        0.0006108260
Ti         0.0006535581       -0.0013664045        0.0002871365
Ti        -0.0009182758       -0.0007034690       -0.0006101755
Ti         0.0008723216       -0.0008930299        0.0000024124
Ti        -0.0003322072        0.0006564754        0.0004095247
Ti        -0.0008615057       -0.0013557284        0.0003128860
Ti         0.0006465330       -0.0006992430        0.0000007757
Ti        -0.0003406407       -0.0008427853        0.0001999456
Ti         0.0008942992        0.0006467574       -0.0006075139
Ti        -0.0013697632        0.0006527280       -0.0002831783
Ti        -0.0007008027       -0.0009165937        0.0006101266
Ti        -0.0006985681        0.0006459175       -0.0000037002
Ti        -0.0013566074       -0.0008669919       -0.0003131735
Ti        -0.0008449681       -0.0003383851       -0.0001977524
Ti         0.0006503086        0.0008976332        0.0006065841
Ti         0.0006562004       -0.0003325021       -0.0004063173
Ti        -0.0008978172        0.0008690672        0.0000007100
Ti         0.0006587760        0.0003866492        0.0004097205
Ti        -0.0008701670        0.0013716249       -0.0003140145
Ti         0.0003901490       -0.0008477114       -0.0001996112
Ti         0.0013820207        0.0006501488        0.0002857538
Ti        -0.0008455704        0.0003903660        0.0001974738
Ti         0.0006505626        0.0013830226       -0.0002810081
Ti         0.0013737167       -0.0008624172        0.0003166469
Ti         0.0003894937        0.0006552289       -0.0004089309
Ti        -0.0013385811       -0.0013362617       -0.0000014236
Ti        -0.0006965353       -0.0006994351        0.0000016904
Ti         0.0008224066       -0.0003347167        0.0001985688
Ti        -0.0003373464        0.0008214853       -0.0001978782
Ti        -0.0007000057       -0.0013722538       -0.0002897961
Ti        -0.0013704329       -0.0007000663        0.0002874859
Ti        -0.0003396534       -0.0003386438       -0.0000006828
Ti         0.0008722682        0.0008737248        0.0000008064
Ti         0.0008942515       -0.0007003391        0.0006100031
Ti        -0.0003404817       -0.0013276986        0.0001044272
Ti        -0.0013598255        0.0008420570        0.0003156471
Ti        -0.0007033273       -0.0003307513        0.0004076606
Ti        -0.0003350938       -0.0007059733       -0.0004102377
Ti         0.0008418773       -0.0013572837       -0.0003111829
Ti        -0.0006981251        0.0008951403       -0.0006132633
Ti        -0.0013263586       -0.0003411636       -0.0001056249
Ti        -0.0013285155        0.0003904675        0.0001037508
Ti        -0.0007027318        0.0013833326        0.0002849314
Ti         0.0003928223       -0.0003349712        0.0000028308
Ti         0.0013729480        0.0008408291       -0.0003198480
Ti        -0.0007050491        0.0003899058       -0.0004155343
Ti        -0.0013384395        0.0013557027        0.0000006714
Ti         0.0013385305       -0.0003369235        0.0001102821
Ti         0.0003906495        0.0008241601        0.0001963594
Ti         0.0008411797        0.0013699475        0.0003193849
Ti        -0.0003376210        0.0003926017       -0.0000029495
Ti        -0.0003343950        0.0013358690       -0.0001072729
Ti         0.0008213019        0.0003929194       -0.0001945904
Ti         0.0013489286       -0.0013354623       -0.0000050407
Ti         0.0003896390       -0.0007026609        0.0004111880
Ti         0.0003922972       -0.0013250352       -0.0001087129
Ti         0.0013850455       -0.0007067702       -0.0002854258
Ti         0.0003931219        0.0003919936        0.0000006091
Ti         0.0013523588        0.0013498540       -0.0000005846
Ti         0.0003957341        0.0013355211        0.0001133059
Ti         0.0013386725        0.0003929352       -0.0001137735
O        -0.0001468738        0.0000792819       -0.0009182481
O         0.0006367740        0.0003481599       -0.0007672235
O         0.0000974124        0.0006799430       -0.0005932224
O         0.0003698656       -0.0001379605       -0.0010635317
O         0.0006857516        0.0000949764        0.0005943564
O        -0.0001424237        0.0003695502        0.0010638897
O         0.0003497130        0.0006399103        0.0007666524
O         0.0000724253       -0.0001532528        0.0009180792
O        -0.0001441935       -0.0006014599       -0.0009392514
O         0.0006880959       -0.0001013631       -0.0005913650
O        -0.0003662102        0.0006380085       -0.0007617556
O        -0.0001239545       -0.0001367564       -0.0010878823
O         0.0005596047       -0.0006009914        0.0006505287
O        -0.0001502678       -0.0000871800        0.0009179177
O        -0.0001241873        0.0005481314        0.0008064596
O        -0.0003913724       -0.0001448656        0.0010613704
O        -0.0005999916       -0.0001458115        0.0009359870
O        -0.0001077012        0.0006857751        0.0005897382
O        -0.0000845781       -0.0001432415       -0.0009193964
O        -0.0005994980        0.0005601410       -0.0006543913
O         0.0005375325       -0.0001212940       -0.0008041150
O        -0.0001405779       -0.0003886307       -0.0010602367
O        -0.0001463265       -0.0001262159        0.0010856149
O         0.0006467334       -0.0003706060        0.0007623885
O        -0.0001418481        0.0001407868       -0.0010856123
O         0.0005683997        0.0005921947       -0.0006486183
O         0.0001388716        0.0005378967       -0.0008027016
O         0.0005922573       -0.0001380842       -0.0009360053
O         0.0005441284        0.0001396609        0.0008034673
O        -0.0001451488        0.0005888383        0.0009332046
O         0.0005915852        0.0005688995        0.0006476419
O         0.0001375192       -0.0001442647        0.0010845956
O        -0.0005081377        0.0001185109       -0.0005193173
O         0.0001737185        0.0003741368       -0.0010656205
O         0.0001331080       -0.0006669365       -0.0005092917
O         0.0003492841       -0.0006487017       -0.0007735288
O         0.0001851726        0.0000779632        0.0009220918
O        -0.0005076298        0.0003318832        0.0006985590
O         0.0003306487       -0.0006660581        0.0006710447
O         0.0000993749       -0.0007017668        0.0005992835
O        -0.0006512525        0.0003475265        0.0007716398
O        -0.0006675798        0.0001307939        0.0005103658
O        -0.0006641778        0.0003315470       -0.0006708890
O        -0.0007035891        0.0000975274       -0.0006014195
O         0.0003320996       -0.0005079070       -0.0006981006
O         0.0000766152        0.0001863296       -0.0009262221
O         0.0001197968       -0.0005085419        0.0005193818
O         0.0003720439        0.0001713281        0.0010686414
O        -0.0005310990       -0.0005946402       -0.0005716910
O         0.0001858072       -0.0000840222       -0.0009165243
O        -0.0003473356       -0.0006643049       -0.0006661070
O        -0.0001252079       -0.0005503290       -0.0008060919
O         0.0001682661       -0.0005978140        0.0009425943
O        -0.0005020715       -0.0001345982        0.0005177186
O        -0.0001271867       -0.0006821873        0.0005992499
O        -0.0003696151       -0.0006594494        0.0007677449
O        -0.0006980869       -0.0001076207        0.0005984267
O        -0.0006761671       -0.0005957406        0.0004900396
O        -0.0006012082       -0.0005770057        0.0006556584
O        -0.0001400566       -0.0006686701        0.0005077816
O        -0.0006658795       -0.0001386653       -0.0005087268
O        -0.0005774189       -0.0005996268       -0.0006563518
O        -0.0001065465       -0.0007014681       -0.0005952122
O        -0.0005950268       -0.0006750047       -0.0004925411
O        -0.0006814720       -0.0001278303       -0.0005988573
O        -0.0006536851       -0.0003692720       -0.0007668866
O        -0.0001308272       -0.0005058209       -0.0005174587
O        -0.0006016175        0.0001752506       -0.0009432788
O        -0.0005531542       -0.0001258804        0.0008045520
O        -0.0006648388       -0.0003523623        0.0006670920
O        -0.0005942030       -0.0005312622        0.0005723201
O        -0.0000860018        0.0001822600        0.0009209782
O         0.0001737395       -0.0003936113        0.0010640658
O        -0.0005307166       -0.0001236512        0.0007200286
O        -0.0001229362        0.0001630259        0.0010886957
O        -0.0003512438       -0.0005085281        0.0006944102
O        -0.0005056760       -0.0003490167       -0.0006934759
O         0.0001649596       -0.0001235566       -0.0010892616
O        -0.0003910817        0.0001764933       -0.0010655384
O        -0.0001216242       -0.0005298300       -0.0007173658
O        -0.0005324188        0.0001401951       -0.0007171446
O         0.0001679395        0.0005931747       -0.0009358431
O         0.0001410668       -0.0006818107       -0.0005989122
O         0.0005895954       -0.0005758147       -0.0006518634
O         0.0001656082        0.0001373651        0.0010896797
O        -0.0005260500        0.0005805385        0.0005683644
O         0.0005848150       -0.0006772904        0.0004878911
O         0.0001399394       -0.0005546076        0.0008047576
O        -0.0005739152        0.0005895494        0.0006498626
O        -0.0006830961        0.0001423473        0.0005997268
O        -0.0006750110        0.0005887556       -0.0004885343
O        -0.0005533543        0.0001396265       -0.0008077237
O         0.0005860098       -0.0005271774       -0.0005675301
O         0.0001367577        0.0001720266       -0.0010884357
O         0.0001372928       -0.0005328499        0.0007175109
O         0.0005911464        0.0001680502        0.0009358292
O         0.0007192196        0.0001307550       -0.0005089791
O         0.0004562224        0.0003361404       -0.0007013937
O         0.0001150922        0.0004526991       -0.0005216603
O         0.0003295947        0.0007150778       -0.0006696465
O         0.0004529898        0.0001164469        0.0005212199
O         0.0007161303        0.0003280153        0.0006685140
O         0.0003380439        0.0004533938        0.0007013134
O         0.0001309180        0.0007200699        0.0005101647
O         0.0007275221       -0.0005968981       -0.0004897086
O         0.0004513996       -0.0001237317       -0.0005179516
O        -0.0003544679        0.0004553986       -0.0006981400
O        -0.0001289460        0.0007330739       -0.0005997080
O         0.0004781951       -0.0005978723        0.0005756992
O         0.0007178096       -0.0001449594        0.0005098523
O        -0.0001236097        0.0004834370        0.0007219242
O        -0.0003486004        0.0007162239        0.0006691913
O        -0.0005940243        0.0007302388        0.0004919872
O        -0.0001298722        0.0004513049        0.0005177014
O        -0.0001403280        0.0007169153       -0.0005065510
O        -0.0005978834        0.0004786518       -0.0005779739
O         0.0004835920       -0.0001205247       -0.0007228296
O         0.0007157072       -0.0003481467       -0.0006666967
O         0.0007338824       -0.0001286512        0.0005996629
O         0.0004541516       -0.0003552473        0.0006969105
O         0.0007329408        0.0001435913       -0.0006040055
O         0.0004774125        0.0005899155       -0.0005739792
O         0.0001373905        0.0004868727       -0.0007224581
O         0.0005845793        0.0007257274       -0.0004911400
O         0.0004829107        0.0001352396        0.0007249799
O         0.0007266711        0.0005836821        0.0004896831
O         0.0005863991        0.0004804151        0.0005745283
O         0.0001432320        0.0007341477        0.0006040747
     192
 i =        2, E =     -5773.9494294441
Ti         0.0001053192        0.0001063584       -0.0000001839
Ti        -0.0002053582       -0.0002071487       -0.0000000541
Ti         0.0000973476       -0.0001856557        0.0004937423
Ti        -0.0001862472        0.0000982846       -0.0004953431
Ti         0.0000968739       -0.0009102837        0.0001795044
Ti        -0.0001857213       -0.0000929446        0.0004858412
Ti         0.0001752718       -0.0002068988       -0.0000186622
Ti        -0.0008268680        0.0000899162       -0.0000674948
Ti        -0.0002258313       -0.0009180343       -0.0006640512
Ti         0.0001058491       -0.0001008882        0.0000095037
Ti        -0.0008220700       -0.0002451097       -0.0004339876
Ti         0.0001533988        0.0000987450        0.0005166857
Ti        -0.0009101481        0.0000954396       -0.0001779216
Ti        -0.0000946727       -0.0001865282       -0.0004868400
Ti        -0.0001002577        0.0001101744       -0.0000088086
Ti        -0.0009195106       -0.0002267457        0.0006663547
Ti        -0.0002458848       -0.0008217588        0.0004330873
Ti         0.0000970738        0.0001537088       -0.0005157669
Ti         0.0000902334       -0.0008273197        0.0000691936
Ti        -0.0002068621        0.0001739768        0.0000209897
Ti         0.0000884893        0.0008845374       -0.0000641610
Ti        -0.0002239593        0.0008837680        0.0006585167
Ti         0.0008799455       -0.0002461298        0.0004369842
Ti         0.0008731672        0.0000975044        0.0001713456
Ti        -0.0002455471        0.0008825205       -0.0004391065
Ti         0.0000946700        0.0008744694       -0.0001709627
Ti         0.0008845215       -0.0002235595       -0.0006574681
Ti         0.0008869573        0.0000891829        0.0000640090
Ti        -0.0009237751       -0.0009250929        0.0000012418
Ti        -0.0001014533       -0.0001010383       -0.0000018520
Ti         0.0002134921       -0.0008229047       -0.0004527685
Ti        -0.0008222689        0.0002136104        0.0004511829
Ti        -0.0000944468       -0.0009111376       -0.0001870101
Ti        -0.0009107247       -0.0000936137        0.0001878695
Ti        -0.0008224851       -0.0008240734       -0.0000007319
Ti         0.0001737435        0.0001722352        0.0000003613
Ti         0.0001530692       -0.0000937342       -0.0005049966
Ti        -0.0008166150       -0.0009403285       -0.0002007900
Ti        -0.0009183863        0.0001934468       -0.0006848076
Ti        -0.0000891975       -0.0008258141       -0.0000621611
Ti        -0.0008286272       -0.0000889947        0.0000614063
Ti         0.0001941073       -0.0009189999        0.0006851377
Ti        -0.0000951834        0.0001543021        0.0005052980
Ti        -0.0009397517       -0.0008200618        0.0001990136
Ti        -0.0009395095        0.0008749004       -0.0001990236
Ti        -0.0000962700        0.0008755733        0.0001786359
Ti         0.0008829345       -0.0008232470        0.0000044397
Ti         0.0008828573        0.0001920824        0.0006749546
Ti        -0.0000899204        0.0008879905        0.0000549263
Ti        -0.0009225518        0.0008905811        0.0000109079
Ti         0.0009072624       -0.0008184646       -0.0001909102
Ti         0.0008781034        0.0002118343       -0.0004562362
Ti         0.0001941213        0.0008847031       -0.0006742858
Ti        -0.0008218742        0.0008850043       -0.0000034372
Ti        -0.0008180985        0.0009070258        0.0001944957
Ti         0.0002137041        0.0008785006        0.0004548399
Ti         0.0008892309       -0.0009191564       -0.0000091516
Ti         0.0008862069       -0.0000894384       -0.0000554727
Ti         0.0008772720       -0.0009396348        0.0001959355
Ti         0.0008740440       -0.0000965299       -0.0001789671
Ti         0.0008828852        0.0008794854       -0.0000007104
Ti         0.0008869594        0.0008888766        0.0000005259
Ti         0.0008768864        0.0009063319       -0.0001867307
Ti         0.0009075246        0.0008770466        0.0001875524
O         0.0001200205        0.0003804369        0.0000466519
O        -0.0001159016       -0.0001667568        0.0004659361
O         0.0003506368       -0.0001477291        0.0003493710
O        -0.0001658016        0.0001187587        0.0001797627
O        -0.0001490603        0.0003538212       -0.0003478891
O         0.0001191795       -0.0001620870       -0.0001792257
O        -0.0001625013       -0.0001150948       -0.0004665480
O         0.0003818226        0.0001189706       -0.0000480989
O         0.0001173398        0.0002920007       -0.0004478677
O        -0.0001516394       -0.0003286959        0.0003603721
O         0.0001741898       -0.0001194905        0.0004979224
O         0.0000518324        0.0001036213       -0.0002748157
O        -0.0000719631        0.0002755422        0.0001434395
O         0.0001192039       -0.0003545615       -0.0000576212
O         0.0000490989       -0.0000728553       -0.0000289141
O         0.0001759917        0.0001167282       -0.0002116506
O         0.0002959276        0.0001160702        0.0004466052
O        -0.0003292117       -0.0001483942       -0.0003617831
O        -0.0003578582        0.0001198298        0.0000581858
O         0.0002761012       -0.0000741329       -0.0001445969
O        -0.0000715031        0.0000517979        0.0000293457
O         0.0001192493        0.0001724381        0.0002115845
O         0.0001045399        0.0000510431        0.0002727249
O        -0.0001213272        0.0001742660       -0.0004971953
O         0.0001044946       -0.0000573627       -0.0002825154
O        -0.0000764215       -0.0002942685       -0.0001341482
O        -0.0000578464       -0.0000741619        0.0000200244
O        -0.0003133148        0.0001166294       -0.0004379327
O        -0.0000736278       -0.0000562558       -0.0000187584
O         0.0001180285       -0.0003127025        0.0004355280
O        -0.0002904870       -0.0000731259        0.0001339796
O        -0.0000592972        0.0001024217        0.0002828143
O         0.0005738367        0.0003185814        0.0003841562
O        -0.0001268370       -0.0001621267        0.0001775811
O         0.0003052657       -0.0005536222        0.0005602787
O        -0.0001640418        0.0001397724        0.0004601062
O        -0.0001308383        0.0003816228       -0.0000429478
O         0.0005646177       -0.0001684031       -0.0004797282
O        -0.0001633807       -0.0005483340       -0.0006482206
O         0.0003578674        0.0001724961       -0.0003430746
O         0.0001403032       -0.0001611546       -0.0004588668
O        -0.0005522511        0.0003081041       -0.0005592033
O        -0.0005487594       -0.0001590870        0.0006472434
O         0.0001735279        0.0003515266        0.0003399354
O        -0.0001681997        0.0005654206        0.0004806705
O         0.0003824623       -0.0001317520        0.0000443133
O         0.0003183914        0.0005731558       -0.0003854181
O        -0.0001639922       -0.0001277869       -0.0001777924
O         0.0005539562        0.0002610580       -0.0001549087
O        -0.0001303201       -0.0003621596        0.0000581164
O         0.0001682595       -0.0005486108        0.0006799461
O         0.0000510430        0.0000933603        0.0000221082
O        -0.0001209890        0.0002965439        0.0004502448
O         0.0005752461       -0.0002934304       -0.0003955092
O         0.0000554855       -0.0005747316       -0.0001878265
O         0.0001709158        0.0001431756       -0.0004907282
O         0.0001759289       -0.0003281385       -0.0003523005
O        -0.0005613444        0.0002631189       -0.0000218646
O         0.0002766498        0.0000942397        0.0001516910
O        -0.0002811346       -0.0005530262       -0.0005702207
O        -0.0005519404       -0.0002862223        0.0005708247
O         0.0000956132        0.0002782862       -0.0001524425
O        -0.0003270882        0.0001767569        0.0003541177
O         0.0002634841       -0.0005614598        0.0000224046
O        -0.0005752707        0.0000526103        0.0001886711
O         0.0001413716        0.0001723608        0.0004902590
O        -0.0002969131        0.0005741027        0.0003957742
O         0.0002969436       -0.0001224843       -0.0004519981
O         0.0000934799        0.0000509641       -0.0000227313
O        -0.0005473040        0.0001701126       -0.0006804497
O         0.0002560931        0.0005552221        0.0001532653
O        -0.0003563211       -0.0001296255       -0.0000577558
O        -0.0001269989        0.0001745917       -0.0002083003
O         0.0005381528        0.0000528483        0.0000117262
O         0.0000515408       -0.0001079850        0.0002757583
O         0.0001758751        0.0005604030       -0.0005118627
O         0.0005604783        0.0001720377        0.0005110180
O        -0.0001070149        0.0000534715       -0.0002753089
O         0.0001740383       -0.0001277284        0.0002092069
O         0.0000535893        0.0005402053       -0.0000102972
O         0.0005379360       -0.0000612890       -0.0000197740
O        -0.0001221917       -0.0003146952       -0.0004382812
O        -0.0000624011       -0.0005744229        0.0001799003
O        -0.0002927889        0.0000967621       -0.0001397255
O        -0.0001085686       -0.0000592595        0.0002856669
O         0.0005580077       -0.0002715798        0.0001419072
O        -0.0002808942       -0.0005599013       -0.0000345768
O        -0.0000578998        0.0000922374       -0.0000125201
O         0.0000943013       -0.0002948672        0.0001393382
O        -0.0005741172       -0.0000598402       -0.0001796950
O        -0.0005598198       -0.0002795457        0.0000344379
O         0.0000917781       -0.0000583680        0.0000122588
O        -0.0002749111        0.0005595648       -0.0001401908
O        -0.0000596965       -0.0001094087       -0.0002864534
O        -0.0000590833        0.0005374024        0.0000188667
O        -0.0003128984       -0.0001246511        0.0004377102
O         0.0005217676        0.0003073044        0.0005610804
O        -0.0005580758       -0.0001709473        0.0004695199
O         0.0003233081       -0.0005683545        0.0003736274
O        -0.0001596690        0.0005192913        0.0006483081
O        -0.0005678741        0.0003235620       -0.0003727239
O         0.0005172374       -0.0001602188       -0.0006471312
O        -0.0001690218       -0.0005579393       -0.0004705692
O         0.0003077745        0.0005209646       -0.0005608614
O         0.0005296488        0.0002613358        0.0000198153
O        -0.0005674932       -0.0003010159        0.0003850725
O         0.0001770878       -0.0005577602        0.0005009813
O         0.0000541020        0.0005429482        0.0001823428
O        -0.0005524280        0.0002589011        0.0001618138
O         0.0005239037       -0.0002812176       -0.0005711374
O         0.0000524384       -0.0005338199        0.0000166955
O         0.0001668878        0.0005162469       -0.0006781950
O         0.0002632742        0.0005283728       -0.0000178358
O        -0.0002999593       -0.0005690650       -0.0003849845
O        -0.0002825098        0.0005233893        0.0005732150
O         0.0002593091       -0.0005524527       -0.0001645725
O        -0.0005333719        0.0000527985       -0.0000175370
O         0.0005177621        0.0001668584        0.0006797386
O         0.0005418533        0.0000551401       -0.0001832688
O        -0.0005561404        0.0001821968       -0.0005015704
O         0.0005414595       -0.0000605879        0.0001735088
O        -0.0005531004       -0.0002750253       -0.0001509758
O        -0.0000588858       -0.0005346428       -0.0000259895
O        -0.0002796557        0.0005296973        0.0000328443
O        -0.0005343005       -0.0000596253        0.0000266175
O         0.0005289635       -0.0002780700       -0.0000334863
O        -0.0002740726       -0.0005543534        0.0001500363
O        -0.0000630862        0.0005412410       -0.0001718159
     192
 i =        3, E =     -5773.9496882964
Ti         0.0001875547        0.0001880096       -0.0000000268
Ti        -0.0000031921       -0.0000040290        0.0000006211
Ti         0.0001837032       -0.0000007615        0.0002072443
Ti        -0.0000024883        0.0001839430       -0.0002092933
Ti         0.0001828810       -0.0000458568        0.0003453563
Ti        -0.0000027501       -0.0001766536        0.0002001373
Ti         0.0000071788       -0.0000039279       -0.0000209581
Ti        -0.0003424526        0.0001781430        0.0004740483
Ti        -0.0000045130       -0.0000503449       -0.0005447409
Ti         0.0001886365       -0.0001831715        0.0000076088
Ti        -0.0003481795       -0.0000103488       -0.0006731245
Ti         0.0000057460        0.0001829906        0.0002295180
Ti        -0.0000451435        0.0001823280       -0.0003440121
Ti        -0.0001769901       -0.0000017995       -0.0001992682
Ti        -0.0001833960        0.0001901852       -0.0000077844
Ti        -0.0000513336       -0.0000048523        0.0005460064
Ti        -0.0000105770       -0.0003482901        0.0006728564
Ti         0.0001828543        0.0000047043       -0.0002290047
Ti         0.0001789992       -0.0003433238       -0.0004729270
Ti        -0.0000058512        0.0000065416        0.0000208902
Ti         0.0001772386        0.0003437992        0.0004677861
Ti        -0.0000051413        0.0000354822        0.0005250776
Ti         0.0003479814       -0.0000095338        0.0006672218
Ti         0.0000306912        0.0001832231        0.0003237574
Ti        -0.0000107687        0.0003490296       -0.0006683693
Ti         0.0001835233        0.0000306260       -0.0003247779
Ti         0.0000354827       -0.0000047366       -0.0005243927
Ti         0.0003438072        0.0001773390       -0.0004687268
Ti        -0.0000571832       -0.0000567050        0.0000010179
Ti        -0.0001839793       -0.0001837429       -0.0000000771
Ti         0.0000114910       -0.0003488458       -0.0006938912
Ti        -0.0003475767        0.0000123462        0.0006936648
Ti        -0.0001760503       -0.0000471885       -0.0003532125
Ti        -0.0000462797       -0.0001756955        0.0003534383
Ti        -0.0003745854       -0.0003751736       -0.0000005894
Ti         0.0000062001        0.0000069319       -0.0000002152
Ti         0.0000053156       -0.0001771748       -0.0002207307
Ti        -0.0003611599       -0.0000648850        0.0001415110
Ti        -0.0000499932        0.0000053095       -0.0005654970
Ti        -0.0001709663       -0.0003427234        0.0004816686
Ti        -0.0003428881       -0.0001711669       -0.0004816921
Ti         0.0000070977       -0.0000513660        0.0005665910
Ti        -0.0001777284        0.0000072849        0.0002199307
Ti        -0.0000648618       -0.0003625481       -0.0001427488
Ti        -0.0000634526        0.0003607527        0.0001338894
Ti        -0.0001770727        0.0000318202        0.0003323938
Ti         0.0003741364       -0.0003748076       -0.0000075633
Ti         0.0000361007        0.0000083792        0.0005458823
Ti        -0.0001710222        0.0003435400       -0.0004770449
Ti        -0.0000568577        0.0000425591        0.0000207315
Ti         0.0000513044       -0.0003608588        0.0001610415
Ti         0.0003473176        0.0000101420       -0.0006874607
Ti         0.0000072441        0.0000363583       -0.0005451387
Ti        -0.0003739854        0.0003748101        0.0000087437
Ti        -0.0003611401        0.0000509761       -0.0001610651
Ti         0.0000112884        0.0003477107        0.0006871661
Ti         0.0000423874       -0.0000560555       -0.0000197397
Ti         0.0003431855       -0.0001724407        0.0004771398
Ti         0.0003614989       -0.0000635359       -0.0001341887
Ti         0.0000312447       -0.0001778714       -0.0003314513
Ti         0.0003736299        0.0003729545       -0.0000002740
Ti         0.0000420343        0.0000426350       -0.0000001127
Ti         0.0003597931        0.0000506097        0.0001540517
Ti         0.0000510723        0.0003603565       -0.0001540152
O        -0.0000804910       -0.0001404370        0.0002617816
O        -0.0000285438        0.0000702279        0.0005820613
O        -0.0001446251       -0.0000193839        0.0002413859
O         0.0000853869       -0.0000818667        0.0005839496
O        -0.0000200688       -0.0001434888       -0.0002417093
O        -0.0000812357        0.0000849777       -0.0005839743
O         0.0000716935       -0.0000296205       -0.0005816956
O        -0.0001405897       -0.0000784369       -0.0002616999
O        -0.0000785910        0.0000783125       -0.0000716747
O        -0.0000192475        0.0001558430        0.0002403807
O        -0.0000639877       -0.0000274288        0.0005972296
O         0.0001604795       -0.0000731862        0.0000127193
O        -0.0000302451        0.0000721486        0.0001162914
O        -0.0000793958        0.0001538567       -0.0002594849
O         0.0001554046       -0.0000241993        0.0000633383
O        -0.0000781052       -0.0000796728       -0.0005987263
O         0.0000793320       -0.0000784058        0.0000718170
O         0.0001552543       -0.0000198442       -0.0002408420
O         0.0001544321       -0.0000801791        0.0002596219
O         0.0000720782       -0.0000305461       -0.0001163781
O        -0.0000221963        0.0001563900       -0.0000635742
O        -0.0000818416       -0.0000796376        0.0005985167