     192
 i =        1, E =     -5773.9485408811
Ti        -0.0007060310       -0.0007030324        0.0000012684
Ti         1.8925998099        1.8926062146        4.8075073309
Ti        -0.0006848180        1.8926142456        2.4026446890
Ti         1.8926269733       -0.0006930330        7.2123687923
Ti        -0.0006595997        3.7811468669        0.0016707206
Ti         1.8926318716       13.2394870625        4.8063873042
Ti        11.3462310777        1.8926065478        2.4037171609
Ti         5.6738444183       -0.0006622240        7.2133371283
Ti         1.8925786730        3.7811529308        7.2107128967
Ti        -0.0007076368       13.2395024427        2.4037743284
Ti         5.6738544983        1.8925655477        4.8065412825
Ti        11.3462137283       -0.0006772824       -0.0010833774
Ti         3.7811439962       -0.0006466176       -0.0016708139
Ti        13.2394773864        1.8926130053        4.8086308520
Ti        13.2395124297       -0.0007256851        7.2112623577
Ti         3.7811656922        1.8925963469        2.4043114145
Ti         1.8925642053        5.6738516856        4.8084720222
Ti        -0.0006851787       11.3462193989        0.0010845038
Ti        -0.0006627811        5.6738441530        2.4016745172
Ti         1.8926183097       11.3462287480        7.2112973228
Ti        -0.0006546182        7.5651133924        0.0020571469
Ti         1.8926009611        9.4577485923        4.8080388918
Ti         7.5651065036        1.8925814694        2.4047090911
Ti         9.4577716329       -0.0006719290        7.2129117241
Ti         1.8925728282        7.5650918270        7.2103152229
Ti        -0.0006581367        9.4577648193        2.4021110396
Ti         9.4577422042        1.8925859579        4.8069822041
Ti         7.5650968172       -0.0006394375       -0.0020597053
Ti         3.7811703011        3.7811783457        0.0000001246
Ti        13.2395058763       13.2395083338        4.8075044406
Ti        11.3462750553        5.6738492160        2.4027642352
Ti         5.6738585187       11.3462670053        7.2122570299
Ti        13.2394538293        3.7811364644        7.2095892175
Ti         3.7811481904       13.2394551494        2.4054379867
Ti         5.6738486853        5.6738520842        4.8075101220
Ti        11.3462386308       11.3462404326       -0.0000022140
Ti        11.3462178496       13.2394845693        2.4048488011
Ti         5.6738507669        3.7811604236        7.2116734523
Ti         3.7811739823       11.3462773093       -0.0005883077
Ti        13.2394488510        5.6738336090        4.8096019909
Ti         5.6738584686       13.2394586758        4.8054270604
Ti        11.3462558899        3.7811734333        0.0005800876
Ti        13.2394837613       11.3462026422        7.2101727668
Ti         3.7811575566        5.6738568933        2.4033500621
Ti         3.7811696479        7.5651201549        0.0004050344
Ti        13.2394744961        9.4577637049        4.8091675104
Ti         7.5651038838        5.6738455924        2.4037409757
Ti         9.4577480466       11.3462486670        7.2118284550
Ti        13.2394558131        7.5650903790        7.2091995923
Ti         3.7811637655        9.4577338956        2.4037854707
Ti         9.4577492150        5.6738536585        4.8079454974
Ti         7.5651124663       11.3462860106       -0.0009759975
Ti        11.3462613650        9.4577509511        2.4031956531
Ti         5.6738401787        7.5650976714        7.2112754254
Ti         5.6738509804        9.4577593594        4.8070714791
Ti        11.3462758206        7.5651070907        0.0009742139
Ti         9.4577443405        3.7811470480        7.2112435218
Ti         7.5651026986       13.2394588175        2.4058198777
Ti         7.5650971582        3.7811701390       -0.0003961405
Ti         9.4577686120       13.2394761073        4.8058571888
Ti         7.5651039494        7.5651134106       -0.0000001295
Ti         9.4577490668        9.4577525105        4.8075095433
Ti         7.5650951692        9.4577535027        2.4041690440
Ti         9.4577426108        7.5650885493        7.2108478138
O         0.0012471859        0.0025433971        1.9888927938
O         1.8838667530        1.8897228266        6.7945122909
O         0.0025217832        1.8836916596        4.3917915571
O         1.8896666996        0.0012207986        9.1990617136
O         1.8836676715        0.0025264023        5.2232232703
O         0.0012413007        1.8896645562        0.4159552138
O         1.8897190086        1.8838494289        2.8205091965
O         0.0025599066        0.0012797194        7.6261323088
O         0.0012391178        3.7816027633        1.9888092097
O         1.8836629113       13.2362247073        6.7955353430
O        11.3490925240        1.8838691902        4.3907214182
O         5.6727655373        0.0012147616        9.2004279445
O         1.8841030277        3.7816229577        5.2231732663
O         0.0012657906       13.2362026520        0.4148724144
O         5.6727846390        1.8841437865        2.8190243860
O        11.3491604992        0.0012586078        7.6272427555
O         3.7816020505        0.0012518606        7.6262178020
O        13.2362343163        1.8836646603        2.8194914582
O        13.2362017787        0.0012272331        9.2001563305
O         3.7816204766        1.8841108046        4.3918586254
O         1.8841913229        5.6727709867        6.7959888471
O         0.0012328168       11.3491578554        1.9877808799
O         0.0012563752        5.6727748199        0.4145962342
O         1.8838321425       11.3491067059        5.2242912510
O         0.0012371611        7.5662164914        1.9891412129
O         1.8840770337        9.4572860060        6.7955869567
O         7.5662128951        1.8841990483        4.3922195033
O         9.4573007622        0.0012112216        9.2000593195
O         1.8841683894        7.5662096370        5.2228002197
O         0.0012443609        9.4573067337        0.4149738243
O         9.4572814416        1.8840655524        2.8194336856
O         7.5662251731        0.0012545272        7.6258796230
O         3.7743579764        0.0025026797        1.9875781592
O        13.2372060278        1.8896540372        6.7953054570
O         0.0024809314        5.6702863573        4.3910340558
O         1.8897226965       11.3547935193        9.1982976807
O        13.2371725521        0.0025477205        5.2223708790
O         3.7744339480        1.8897857490        0.4171353483
O         1.8897920822        5.6702694034        2.8211489183
O         0.0025160967       11.3550149682        7.6269596103
O        11.3548065276        1.8897236774        0.4167192865
O         5.6702462018        0.0024870519        5.2239756243
O         5.6702851165        1.8897855664        6.7938669164
O        11.3550207680        0.0025227903        1.9880732717
O         1.8897828178        3.7744334338        9.1978848604
O         0.0025514544       13.2371691637        4.3926604971
O         0.0024965613        3.7743599111        7.6274450653
O         1.8896648727       13.2372205599        2.8197106258
O         3.7745605221        3.7816398719        1.9878460700
O        13.2371687781       13.2362049213        6.7963731852
O        11.3490352270        5.6702894094        4.3900755951
O         5.6727854200       11.3544753378        9.1997567993
O        13.2372341009        3.7815909623        5.2224583989
O         3.7743206727       13.2362667643        0.4161879990
O         5.6727771686        5.6702735095        2.8193786822
O        11.3491052454       11.3548401504        7.6280172164
O        11.3549880878       13.2362345760        0.4156950976
O         5.6702742837        3.7816364332        5.2236150776
O         3.7816273567       11.3545874746        7.6269006386
O        13.2362677301        5.6702586934        2.8202366189
O         5.6702652215       13.2362712001        6.7947877762
O        11.3545840220        3.7816132162        1.9881170224
O        13.2362291505       11.3550011117        9.1993164326
O         3.7816336290        5.6702877363        4.3914148427
O         5.6702754803        5.6727861406        6.7956430118
O        11.3548160807       11.3491091490        1.9870006987
O        13.2362610747        3.7743414384        9.1988342830
O         3.7816070375       13.2372033576        4.3925687358
O        11.3544889468        5.6727831358        0.4152700383
O         5.6702571568       11.3490445667        5.2249456184
O         3.7816424214        3.7745576423        7.6271774172
O        13.2362024382       13.2371841568        2.8186273423
O        13.2372079374       11.3491631970        5.2234882623
O         3.7745733137        5.6727938721        0.4154625504
O         5.6727708225       13.2372518946        2.8183600702
O        11.3490457932        3.7744514044        7.6284327719
O         3.7744388434       11.3490421876        1.9865875208
O        13.2372404328        5.6727581740        6.7966676440
O        11.3491561155       13.2371950879        4.3915358752
O         5.6727837055        3.7745627698        9.1995548249
O         3.7745838550        7.5662040135        1.9882785652
O        13.2372373734        9.4573002364        6.7962910888
O         7.5662119020        5.6702830564        4.3918670966
O         9.4572893770       11.3545725600        9.1993635616
O        13.2372391583        7.5662178363        5.2221257519
O         3.7745214798        9.4572781079        0.4159442446
O         9.4572740381        5.6702785082        2.8198958053
O         7.5662137710       11.3545015422        7.6265451549
O        11.3545709484        9.4572887870        0.4156664845
O         5.6702684428        7.5662093424        5.2231473936
O         5.6702905055        9.4572663142        6.7951236355
O        11.3544959613        7.5662144955        1.9884849968
O         9.4572665156        3.7745230078        9.1990778383
O         7.5662268808       13.2372100267        4.3928980071
O         7.5662030953        3.7745897054        7.6267478292
O         9.4573018808       13.2372431583        2.8187329800
O         7.5689920399        0.0024897297        1.9872990381
O         9.4645021091        1.8897714580        6.7941383204
O         0.0025120963        9.4646013385        4.3913425284
O         1.8897949264        7.5689404467        9.1976338087
O         9.4645992065        0.0025060299        5.2236800156
O         7.5689730916        1.8898009268        0.4173906096
O         1.8897736845        9.4645164890        2.8208844719
O         0.0024886061        7.5690133993        7.6277156998
O         7.5689560119        3.7816435321        1.9876586514
O         9.4646088909       13.2362539414        6.7950822795
O        11.3490536202        9.4645052212        4.3903549102
O         5.6727872221        7.5689503564        9.1994027500
O         9.4644002133        3.7816400475        5.2234271348
O         7.5689729918       13.2362790019        0.4164541853
O         5.6727817495        9.4643506279        2.8192262598
O        11.3490367914        7.5689935203        7.6286739467
O         3.7816364228        7.5689754617        7.6273576678
O        13.2362652517        9.4646118156        2.8199421752
O        13.2362701365        7.5689660927        9.1985500433
O         3.7816431833        9.4643966437        4.3916057072
O         9.4643477960        5.6727752589        6.7957957107
O         7.5689756352       11.3490390940        1.9863324232
O         7.5689718938        5.6727859866        0.4156201288
O         9.4645073438       11.3490523650        5.2246763466
O         7.5689706357        7.5662019466        1.9881292767
O         9.4644035418        9.4572600592        6.7953339776
O         7.5661991269        9.4643338539        4.3920204828
O         9.4572710405        7.5689531115        9.1988950287
O         9.4643507019        7.5662113901        5.2229897040
O         7.5689609197        9.4572691256        0.4161292053
O         9.4572659497        9.4643932343        2.8196882594
O         7.5662030578        7.5689768680        7.6268898607
     192
 i =        2, E =     -5773.9494294441
Ti         0.0008112484        0.0008068052        0.0000030021
Ti         1.8894728569        1.8894756415        4.8075071884
Ti         0.0007857248        1.8894018738        2.4017283336
Ti         1.8894034801        0.0007820003        7.2132943656
Ti         0.0007791240        3.7780687688        0.0028027994
Ti         1.8894075380       13.2377994894        4.8054568750
Ti        11.3492578042        1.8894773045        2.4036842802
Ti         5.6724979097        0.0007441793        7.2154831271
Ti         1.8895619536        3.7780893779        7.2104673848
Ti         0.0008052237       13.2377856819        2.4037837914
Ti         5.6725177631        1.8895493568        4.8053274532
Ti        11.3493349846        0.0007892155       -0.0019687303
Ti         3.7780660145        0.0007907461       -0.0027986968
Ti        13.2378020529        1.8893964764        4.8095649136
Ti        13.2377857838        0.0007862807        7.2112420196
Ti         3.7781032320        1.8895722845        2.4045496314
Ti         1.8895505287        5.6725189579        4.8096927530
Ti         0.0007902485       11.3493377254        0.0019673549
Ti         0.0007423163        5.6725026358        2.3995305668
Ti         1.8894827558       11.3492580932        7.2113293313
Ti         0.0007532070        7.5666234810        0.0041807881
Ti         1.8895644308        9.4608434632        4.8082293360
Ti         7.5666036673        1.8895641735        2.4058995092
Ti         9.4608798156        0.0007723331        7.2139913392
Ti         1.8895574995        7.5665903979        7.2091216835
Ti         0.0007845347        9.4608799420        2.4010372957
Ti         9.4608446044        1.8895579982        4.8067943009
Ti         7.5666119753        0.0007596863       -0.0041825326
Ti         3.7781395571        3.7781516414       -0.0000010678
Ti        13.2377901821       13.2377842093        4.8075137002
Ti        11.3491894824        5.6725232312        2.4015072039
Ti         5.6725256465       11.3491843782        7.2135168675
Ti        13.2378160402        3.7780549699        7.2084435667
Ti         3.7780698001       13.2378207708        2.4065828545
Ti         5.6725242637        5.6725326432        4.8075082134
Ti        11.3492698376       11.3492746751       -0.0000004757
Ti        11.3493375985       13.2378066329        2.4057459439
Ti         5.6725350019        3.7780931296        7.2125477391
Ti         3.7781019714       11.3491901886       -0.0008615945
Ti        13.2378487031        5.6724900259        4.8117570615
Ti         5.6725067517       13.2378453102        4.8032656247
Ti        11.3491748921        3.7781032257        0.0008617346
Ti        13.2378100831       11.3493200119        7.2092721803
Ti         3.7780906280        5.6725460222        2.4024722818
Ti         3.7781011292        7.5665889081        0.0012584130
Ti        13.2378228742        9.4608690342        4.8102583995
Ti         7.5665889819        5.6725329498        2.4037214816
Ti         9.4608545559       11.3491741334        7.2120454151
Ti        13.2378472205        7.5666048273        7.2070592826
Ti         3.7781373985        9.4608096194        2.4038306902
Ti         9.4608463626        5.6725397884        4.8088781411
Ti         7.5666107957       11.3491989315       -0.0022127594
Ti        11.3491807074        9.4608495109        2.4029726558
Ti         5.6725252130        7.5665838326        7.2112946120
Ti         5.6725395833        9.4608481853        4.8061370898
Ti        11.3491870951        7.5666100645        0.0022111750
Ti         9.4608033057        3.7781237139        7.2111888382
Ti         7.5666199224       13.2378547016        2.4079590157
Ti         7.5665738408        3.7781057912       -0.0012529921
Ti         9.4608834637       13.2378195365        4.8047650615
Ti         7.5665872940        7.5665981305       -0.0000005599
Ti         9.4608130977        9.4608032184        4.8075094130
Ti         7.5665783974        9.4608478741        2.4050844870
Ti         9.4608392449        7.5665734994        7.2099324849
O         0.0007623332        0.0010029659        1.9852711196
O         1.8853625579        1.8889787873        6.7900208203
O         0.0010543470        1.8854095861        4.3883061176
O         1.8889460903        0.0007846963        9.1944854511
O         1.8854155616        0.0010486414        5.2267147490
O         0.0007829160        1.8889387343        0.4205363963
O         1.8889725582        1.8853597476        2.8250000506
O         0.0010025456        0.0007639492        7.6297567946
O         0.0007703342        3.7781781126        1.9860115041
O         1.8854245817       13.2375203731        6.7920314743
O        11.3497252595        1.8853740749        4.3861899064
O         5.6714926792        0.0007872613        9.1982201515
O         1.8851704091        3.7782452014        5.2258752886
O         0.0007651292       13.2375618718        0.4185153833
O         5.6715218822        1.8851494449        2.8211613955
O        11.3497575312        0.0007900343        7.6318680026
O         3.7781711845        0.0007770424        7.6290125192
O        13.2375206174        1.8854116079        2.8229982194
O        13.2375699013        0.0007591656        9.1965033258
O         3.7782434304        1.8851846425        4.3891445503
O         1.8851436721        5.6715112298        6.7938607765
O         0.0007837171       11.3497646377        1.9831572587
O         0.0007801087        5.6714981850        0.4168054247
O         1.8853815356       11.3497276431        5.2288242504
O         0.0007838336        7.5676392426        1.9869002274
O         1.8851934873        9.4606939134        6.7928205430
O         7.5676218230        1.8851566686        4.3900573417
O         9.4607625446        0.0007729532        9.1972017780
O         1.8851562859        7.5676174886        5.2249646920
O         0.0007712950        9.4607605168        0.4178315356
O         9.4606826405        1.8851813236        2.8221998104
O         7.5676416116        0.0007912715        7.6281203653
O         3.7678468595        0.0011246367        1.9842531455
O        13.2377087472        1.8889344066        6.7907219970
O         0.0011331104        5.6645233127        4.3871727184
O         1.8889741127       11.3531323041        9.1938065908
O        13.2377384639        0.0010016611        5.2259922313
O         3.7679565929        1.8890444009        0.4214621562
O         1.8890185177        5.6645046436        2.8259409966
O         0.0010421772       11.3530825534        7.6304422575
O        11.3531329963        1.8889675888        0.4212026859
O         5.6644638755        0.0011285748        5.2278364514
O         5.6645387468        1.8890094241        6.7890782758
O        11.3530780360        0.0010521275        1.9845902064
O         1.8890411801        3.7679542099        9.1935523347
O         0.0010016105       13.2377413523        4.3890197210
O         0.0011239120        3.7678467272        7.6307705385
O         1.8889430896       13.2377125290        2.8243002332
O         3.7679728482        3.7783401520        1.9853519230
O        13.2377376262       13.2375747165        6.7927333063
O        11.3497010420        5.6645441447        4.3852401121
O         5.6715141116       11.3533539465        9.1976426914
O        13.2377085130        3.7781668025        5.2252587471
O         3.7678363328       13.2374508354        0.4195296076
O         5.6715201938        5.6643993895        2.8214405617
O        11.3497386036       11.3531241631        7.6325440215
O        11.3530702844       13.2375197118        0.4191966511
O         5.6644418458        3.7783367120        5.2263601857
O         3.7782438572       11.3533290595        7.6295993540
O        13.2374409666        5.6644738704        2.8241120134
O         5.6645014523       13.2374505160        6.7909051612
O        11.3533215654        3.7782364681        1.9854230299
O        13.2375176683       11.3530656571        9.1958184206
O         3.7783313044        5.6644682585        4.3886626172
O         5.6644067735        5.6715325117        6.7935803793
O        11.3531296300       11.3497376578        1.9824788474
O        13.2374552665        3.7678396446        9.1954898223
O         3.7781687021       13.2377130465        4.3897654232
O        11.3533535988        5.6715154789        0.4173830416
O         5.6644962756       11.3496957076        5.2297857180
O         3.7783497280        3.7679678030        7.6296747388
O        13.2375661027       13.2377347829        2.8222835278
O        13.2377116509       11.3497579107        5.2281147905
O         3.7679922015        5.6715493205        0.4173921202
O         5.6715006698       13.2376974443        2.8205697926
O        11.3496717636        3.7679743067        7.6328082592
O         3.7679763299       11.3496809907        1.9822171006
O        13.2376946889        5.6714835461        6.7944537162
O        11.3497615018       13.2377123360        4.3869045533
O         5.6715434965        3.7679838717        9.1976306238
O         3.7679952740        7.5675972812        1.9863225940
O        13.2377107392        9.4607643555        6.7934306317
O         7.5676076687        5.6644152365        4.3897703145
O         9.4606931504       11.3533166346        9.1965999675
O        13.2376972205        7.5676336149        5.2243721090
O         3.7679531434        9.4605844278        0.4184993894
O         9.4606010500        5.6644406863        2.8227155698
O         7.5676283401       11.3533611664        7.6286898821
O        11.3533270132        9.4606963591        0.4184248794
O         5.6643864960        7.5676024058        5.2252476810
O         5.6644722637        9.4605993371        6.7923034939
O        11.3533617069        7.5676285930        1.9863326481
O         9.4605899324        3.7679478236        9.1965159253
O         7.5676417028       13.2377003566        4.3906578551
O         7.5675825313        3.7680003875        7.6287044965
O         9.4607619489       13.2377193673        2.8215935788
O         7.5752518348        0.0011326031        1.9834487466
O         9.4706527158        1.8890408048        6.7898241169
O         0.0011176197        9.4707672829        4.3880364708
O         1.8890174247        7.5751544477        9.1928551547
O         9.4707664736        0.0011148507        5.2269857499
O         7.5752062769        1.8890202034        0.4221598562
O         1.8890413238        9.4706536468        2.8252016113
O         0.0011318738        7.5752867332        7.6315647361
O         7.5752608525        3.7783453914        1.9849234210
O         9.4707690410       13.2374623089        6.7917580132
O        11.3496714386        9.4706512923        4.3859939505
O         5.6715291813        7.5752916575        9.1973456673
O         9.4706601693        3.7783376074        5.2259118063
O         7.5752162941       13.2374419457        0.4203257368
O         5.6715428460        9.4706280419        2.8211407332
O        11.3496979767        7.5752350000        7.6335048747
O         3.7783408386        7.5753056128        7.6300922271
O        13.2374621254        9.4707722177        2.8232644473
O        13.2374427639        7.5752008989        9.1946809203
O         3.7783362750        9.4706583798        4.3891148710
O         9.4706250592        5.6715440645        6.7938784263
O         7.5752070250       11.3497001141        1.9815057343
O         7.5753266365        5.6715286057        0.4176787511
O         9.4706461525       11.3496598767        5.2290317888
O         7.5753186859        7.5676016644        1.9860273474
O         9.4706595007        9.4605933359        6.7927802177
O         7.5675827148        9.4706278122        4.3900721445
O         9.4605947540        7.5752449304        9.1960752158
O         9.4706245847        7.5675885748        5.2249430657
O         7.5752619225        9.4605894685        0.4189465935
O         9.4605918800        9.4706652605        2.8222447865
O         7.5676052743        7.5753352086        7.6289891946
     192
 i =        3, E =     -5773.9496882964
Ti         0.0003993639        0.0004028419        0.0000011836
Ti         1.8889737715        1.8889758163        4.8075054173
Ti         0.0004070836        1.8889652854        2.4027407189
Ti         1.8889702341        0.0004015887        7.2122844222
Ti         0.0004321600        3.7759644869        0.0025351640
Ti         1.8889766564       13.2381599119        4.8064763238
Ti        11.3497107843        1.8889780797        2.4037034811
Ti         5.6711165104        0.0004061470        7.2154211776
Ti         1.8889999275        3.7759644071        7.2096897077
Ti         0.0003978292       13.2381742416        2.4037764119
Ti         5.6711194025        1.8889525185        4.8043179995
Ti        11.3497183293        0.0004129818       -0.0009735263
Ti         3.7759601838        0.0004440674       -0.0025324645
Ti        13.2381590564        1.8889638179        4.8085429263
Ti        13.2381776799        0.0003821395        7.2112492300
Ti         3.7759770536        1.8890108129        2.4053280975
Ti         1.8889501492        5.6711227173        4.8107008183
Ti         0.0004118700       11.3497266242        0.0009708708
Ti         0.0004049716        5.6711186524        2.3995921747
Ti         1.8889876627       11.3497077540        7.2113145912
Ti         0.0004174055        7.5681005159        0.0040881305
Ti         1.8890092861        9.4629270937        4.8089901871
Ti         7.5680999826        1.8889644440        2.4068781039
Ti         9.4629390223        0.0004210451        7.2137077700
Ti         1.8889618801        7.5680902027        7.2081437658
Ti         0.0004301945        9.4629400950        2.4013213540
Ti         9.4629276723        1.8890039582        4.8060336562
Ti         7.5680935436        0.0004236153       -0.0040896359
Ti         3.7760225237        3.7760313301       -0.0000013237
Ti        13.2381820777       13.2381752291        4.8075127202
Ti        11.3497400901        5.6711265483        2.4005163488
Ti         5.6711281071       11.3497331290        7.2145048686
Ti        13.2381362512        3.7759534928        7.2087188545
Ti         3.7759648814       13.2381400895        2.4063058207
Ti         5.6710912302        5.6711001365        4.8075083213
Ti        11.3497198877       11.3497215080        0.0000002467
Ti        11.3497220186       13.2381640605        2.4047466685
Ti         5.6711204317        3.7759440807        7.2127732632
Ti         3.7759766210       11.3497038990       -0.0016212670
Ti        13.2381576447        5.6711119484        4.8116845962
Ti         5.6711215698       13.2381588943        4.8033374562
Ti        11.3496858476        3.7759792556        0.0016217829
Ti        13.2381688077       11.3497014696        7.2102762124
Ti         3.7759417288        5.6711287507        2.4022473162
Ti         3.7759566503        7.5681009831        0.0014546802
Ti        13.2381449156        9.4629308130        4.8099653165
Ti         7.5681230655        5.6711013907        2.4036992360
Ti         9.4629318473       11.3496782989        7.2127853647
Ti        13.2381538404        7.5680880219        7.2071613167
Ti         3.7760188413        9.4628807537        2.4038507337
Ti         9.4629500910        5.6711264328        4.8091264080
Ti         7.5681029567       11.3497465806       -0.0031722877
Ti        11.3496886970        9.4629297179        2.4022315623
Ti         5.6710961055        7.5681194808        7.2113166589
Ti         5.6711261796        9.4629540385        4.8058937777
Ti        11.3497350060        7.5681011060        0.0031696624
Ti         9.4628757073        3.7760108689        7.2111684081
Ti         7.5680995852       13.2381620461        2.4078582447
Ti         7.5680888448        3.7759607683       -0.0014528980
Ti         9.4629406064       13.2381470513        4.8050558008
Ti         7.5681193152        7.5681263302        0.0000003251
Ti         9.4628842529        9.4628800107        4.8075100981
Ti         7.5680943527        9.4629466068        2.4053065168
Ti         9.4629383997        7.5680896957        7.2097125867
O         0.0013241638        0.0016190207        1.9845010939
O         1.8848391973        1.8876746880        6.7896243664
O         0.0016144453        1.8847585577        4.3888759502
O         1.8876436555        0.0013495943        9.1927920717
O         1.8847630711        0.0016121545        5.2261499709
O         0.0013459607        1.8876432833        0.4222331766
O         1.8876720412        1.8848431872        2.8253936239
O         0.0016212835        0.0013147454        7.6305221281
O         0.0013212085        3.7771635541        1.9838906053
O         1.8847611429       13.2369401259        6.7926341547
O        11.3509959152        1.8848335773        4.3858786552
O         5.6711758744        0.0012743377        9.1972797365
O         1.8847977727        3.7771800368        5.2266236145
O         0.0013198911       13.2369323743        0.4192511374
O         5.6711952264        1.8847596986        2.8207210200
O        11.3510277091        0.0013385438        7.6334791677
O         3.7771628280        0.0013202128        7.6311296116
O        13.2369413492        1.8847623092        2.8223916335
O        13.2369319823        0.0013231010        9.1957671820
O         3.7771787257        1.8848019934        4.3883930671
O         1.8847514182        5.6711900096        6.7943022365
O         0.0013488188       11.3510313337        1.9815446892