     192
 i =        1, E =     -5781.2560678447
Ti        -0.0006967233       -0.0007037518        0.0000022834
Ti         1.8927188218        1.8927318929        4.8075090353
Ti        -0.0006669731        1.8927215481        2.4026327005
Ti         1.8927349538       -0.0006696709        7.2123789140
Ti        -0.0006456758        3.7811837600        0.0016993096
Ti         1.8927500417       13.2394819835        4.8063743294
Ti        11.3461216905        1.8927179585        2.4037193566
Ti         5.6738661290       -0.0006371033        7.2133677309
Ti         1.8926875765        3.7812238933        7.2106877275
Ti        -0.0006928959       13.2394817773        2.4037765118
Ti         5.6738773072        1.8926952656        4.8065235784
Ti        11.3460890112       -0.0006771282       -0.0010962189
Ti         3.7811885028       -0.0006434663       -0.0016932013
Ti        13.2394700857        1.8927410689        4.8086372452
Ti        13.2394936143       -0.0006964714        7.2112557128
Ti         3.7812190899        1.8927038851        2.4043314975
Ti         1.8926900822        5.6738773129        4.8084902270
Ti        -0.0006783430       11.3460997493        0.0010868098
Ti        -0.0006386698        5.6738616763        2.4016404726
Ti         1.8927276353       11.3461181440        7.2112949899
Ti        -0.0006344958        7.5650795901        0.0020955517
Ti         1.8927199483        9.4576990448        4.8080548246
Ti         7.5650816989        1.8926861237        2.4047290417
Ti         9.4577136367       -0.0006500913        7.2129398427
Ti         1.8926870945        7.5650789484        7.2102999430
Ti        -0.0006423179        9.4577073073        2.4020835531
Ti         9.4576963088        1.8927142599        4.8069666361
Ti         7.5650657010       -0.0006325422       -0.0020933861
Ti         3.7812171977        3.7812196552        0.0000005183
Ti        13.2394947888       13.2395044020        4.8075115796
Ti        11.3461643274        5.6738717971        2.4027424288
Ti         5.6738759488       11.3461510020        7.2122776806
Ti        13.2394438450        3.7812057679        7.2095665343
Ti         3.7812018574       13.2394366061        2.4054624874
Ti         5.6738792182        5.6738852631        4.8075131896
Ti        11.3461126166       11.3461181619        0.0000006417
Ti        11.3461040646       13.2394612788        2.4048647721
Ti         5.6738633774        3.7812190914        7.2116892400
Ti         3.7812177945       11.3461531822       -0.0006006095
Ti        13.2394405514        5.6738740421        4.8096328698
Ti         5.6738853981       13.2394464804        4.8053977543
Ti        11.3461393807        3.7812107364        0.0006003878
Ti        13.2394687769       11.3460922492        7.2101629874
Ti         3.7812168594        5.6738684300        2.4033448664
Ti         3.7812199915        7.5650855598        0.0004047594
Ti        13.2394614439        9.4577212990        4.8091921247
Ti         7.5650847098        5.6738653855        2.4037361456
Ti         9.4576922691       11.3461362284        7.2118384595
Ti        13.2394352514        7.5650757951        7.2091710322
Ti         3.7812232485        9.4576788112        2.4037801435
Ti         9.4577000591        5.6738910743        4.8079526900
Ti         7.5650796158       11.3461641175       -0.0009967508
Ti        11.3461487670        9.4576905289        2.4031794688
Ti         5.6738668194        7.5650769608        7.2112735537
Ti         5.6738948619        9.4577017794        4.8070598171
Ti        11.3461559924        7.5650772549        0.0009902564
Ti         9.4576846396        3.7812136160        7.2112371337
Ti         7.5650774864       13.2394342139        2.4058541771
Ti         7.5650739900        3.7812137780       -0.0004080870
Ti         9.4577205410       13.2394667522        4.8058297511
Ti         7.5650764449        7.5650826570        0.0000020678
Ti         9.4577081682        9.4577081231        4.8075104206
Ti         7.5650739676        9.4576928846        2.4041826531
Ti         9.4576855179        7.5650724612        7.2108430499
O         0.0012916234        0.0026692283        1.9926971311
O         1.8844636546        1.8897818073        6.7983891786
O         0.0026462371        1.8842547366        4.3956272489
O         1.8897139585        0.0012893304        9.2029033687
O         1.8842469440        0.0026603738        5.2193924438
O         0.0012856875        1.8897123146        0.4121087099
O         1.8897714870        1.8844453467        2.8166375437
O         0.0026776732        0.0012984904        7.6223254162
O         0.0012786960        3.7816725026        1.9926451409
O         1.8842576284       13.2361035755        6.7993697089
O        11.3490497683        1.8844197050        4.3945993000
O         5.6727821490        0.0012755805        9.2042706911
O         1.8846631739        3.7816925157        5.2193014406
O         0.0013116868       13.2360743548        0.4110712363
O         5.6728076036        1.8847409641        2.8151578424
O        11.3491062217        0.0012809684        7.6233968491
O         3.7816705042        0.0012811444        7.6223805340
O        13.2361102227        1.8842633942        2.8156529359
O        13.2360696571        0.0013074078        9.2039591500
O         3.7816960334        1.8846647448        4.3957226733
O         1.8847745950        5.6727974843        6.7998626954
O         0.0012804508       11.3491017128        1.9916174795
O         0.0012900505        5.6727971247        0.4107470598
O         1.8844078129       11.3490599718        5.2204144937
O         0.0012758401        7.5661904547        1.9929950911
O         1.8846574469        9.4572165456        6.7994501945
O         7.5661915844        1.8847448326        4.3960938379
O         9.4572273018        0.0012783455        9.2038929491
O         1.8847274512        7.5661859036        5.2189328771
O         0.0012799657        9.4572225316        0.4111315924
O         9.4572089331        1.8846560269        2.8155692096
O         7.5662045339        0.0012781105        7.6220329175
O         3.7750355817        0.0026261516        1.9913928989
O        13.2372086232        1.8897162529        6.7991458952
O         0.0026148480        5.6705504088        4.3948429298
O         1.8897678993       11.3542404286        9.2021716444
O        13.2371483946        0.0026763040        5.2185614761
O         3.7751454335        1.8898323565        0.4132870596
O         1.8898461330        5.6705936432        2.8173012916
O         0.0026442650       11.3544492470        7.6231153950
O        11.3542566582        1.8897713350        0.4128487108
O         5.6705413655        0.0026190790        5.2201650872
O         5.6705929181        1.8898380268        6.7977118798
O        11.3544524217        0.0026428006        1.9919087870
O         1.8898283179        3.7751435318        9.2017326462
O         0.0026778616       13.2371442536        4.3964655388
O         0.0026194361        3.7750164303        7.6236320608
O         1.8897159674       13.2372285227        2.8158662060
O         3.7752406967        3.7817078845        1.9916870522
O        13.2371792702       13.2360794759        6.8001884209
O        11.3489819827        5.6705593584        4.3939253824
O         5.6728027478       11.3539335068        9.2036321033
O        13.2372117483        3.7816790733        5.2186243864
O         3.7750337470       13.2361368847        0.4123758131
O         5.6728063614        5.6705950553        2.8155476351
O        11.3490586261       11.3542794775        7.6241443033
O        11.3544470506       13.2361010136        0.4118666341
O         5.6705719592        3.7817196909        5.2197897618
O         3.7816965510       11.3540309925        7.6230377638
O        13.2361440105        5.6705716843        2.8164289344
O         5.6705723724       13.2361501183        6.7985995023
O        11.3540199520        3.7816852145        1.9919859748
O        13.2361052306       11.3544417607        9.2031570325
O         3.7817075902        5.6705817458        4.3952478327
O         5.6705970878        5.6728133932        6.7994798709
O        11.3542521991       11.3490554187        1.9908757611
O        13.2361366475        3.7750526612        9.2026500907
O         3.7816815839       13.2371849652        4.3964016248
O        11.3539487691        5.6727953436        0.4113913942
O         5.6705492380       11.3489907137        5.2210941922
O         3.7817117176        3.7752273898        7.6233350141
O        13.2360804271       13.2371853445        2.8148227804
O        13.2371838989       11.3491083383        5.2196425487
O         3.7752839572        5.6728057105        0.4116192211
O         5.6727943075       13.2372523836        2.8145144200
O        11.3490012787        3.7751174325        7.6245799145
O         3.7751131181       11.3489953119        1.9904417380
O        13.2372359390        5.6727954624        6.8005117804
O        11.3491058189       13.2371774051        4.3953833315
O         5.6728117728        3.7752859803        9.2034047962
O         3.7752649977        7.5661726185        1.9921168401
O        13.2372399772        9.4572243213        6.8001295487
O         7.5661965097        5.6705686702        4.3957058921
O         9.4572108169       11.3540265051        9.2032211817
O        13.2372201878        7.5661998889        5.2182840996
O         3.7752275245        9.4572035768        0.4121025236
O         9.4572020612        5.6705979970        2.8160597692
O         7.5661836803       11.3539567499        7.6226673411
O        11.3540424494        9.4572194304        0.4118016518
O         5.6705647986        7.5661811848        5.2193104453
O         5.6705982177        9.4571900723        6.7989574768
O        11.3539375416        7.5661911358        1.9923532462
O         9.4571863834        3.7752400239        9.2029175428
O         7.5662039650       13.2371970892        4.3967444052
O         7.5661711348        3.7752672918        7.6228912648
O         9.4572259255       13.2372479800        2.8148932889
O         7.5686744287        0.0026085270        1.9911022032
O         9.4638103314        1.8898270463        6.7979922098
O         0.0026400907        9.4639090763        4.3951558992
O         1.8898521424        7.5686336117        9.2014817133
O         9.4639035193        0.0026341667        5.2198664107
O         7.5686432002        1.8898428082        0.4135447481
O         1.8898274975        9.4638250955        2.8170329349
O         0.0026148844        7.5686656458        7.6239095153
O         7.5686184993        3.7817120272        1.9914930888
O         9.4639167308       13.2361252169        6.7988953483
O        11.3490069840        9.4638006094        4.3942014170
O         5.6728046702        7.5686339904        9.2032391007
O         9.4636979325        3.7817148339        5.2195786855
O         7.5686511408       13.2361493900        0.4126492186
O         5.6727957678        9.4636559891        2.8153718405
O        11.3489736295        7.5686440608        7.6248269482
O         3.7817069123        7.5686256604        7.6235249580
O        13.2361408607        9.4639234587        2.8161247540
O        13.2361388287        7.5686561993        9.2023657848
O         3.7817203524        9.4636926701        4.3954439197
O         9.4636564933        5.6727981898        6.7996469845
O         7.5686508082       11.3489799014        1.9901866766
O         7.5686295074        5.6728116493        0.4117781199
O         9.4637938056       11.3489991593        5.2208192202
O         7.5686284373        7.5661815838        1.9919729691
O         9.4637091750        9.4571968464        6.7991732246
O         7.5661769949        9.4636347810        4.3958734812
O         9.4571983587        7.5686309954        9.2027334420
O         9.4636255331        7.5662001450        5.2191470997
O         7.5686303003        9.4571928400        0.4122966716
O         9.4571948238        9.4636987406        2.8158494761
O         7.5661855444        7.5686222379        7.6230536659
     192
 i =        2, E =     -5781.2566142362
Ti         0.0005820802        0.0005705067        0.0000023162
Ti         1.8904819167        1.8904934876        4.8075092524
Ti         0.0005790036        1.8903976939        2.4016228262
Ti         1.8904110620        0.0005800930        7.2133952103
Ti         0.0005852993        3.7785813782        0.0027922058
Ti         1.8904267182       13.2380499465        4.8053531701
Ti        11.3482747902        1.8904742889        2.4036914054
Ti         5.6728592482        0.0005853178        7.2153327679
Ti         1.8905670694        3.7786459269        7.2105890585
Ti         0.0005838488       13.2380236406        2.4037853287
Ti         5.6728890670        1.8906130065        4.8055810142
Ti        11.3483282737        0.0005671147       -0.0020817925
Ti         3.7785902494        0.0005895558       -0.0027872475
Ti        13.2380469495        1.8904230482        4.8096621869
Ti        13.2380342377        0.0005815584        7.2112432380
Ti         3.7786473712        1.8905772206        2.4044286197
Ti         1.8906118267        5.6728970822        4.8094348307
Ti         0.0005695634       11.3483337701        0.0020718129
Ti         0.0005835279        5.6728588172        2.3996753724
Ti         1.8904824470       11.3482750702        7.2113190330
Ti         0.0005851109        7.5662207581        0.0040449296
Ti         1.8905875790        9.4603045758        4.8081058129
Ti         7.5662139193        1.8906058074        2.4056530792
Ti         9.4603355902        0.0005889533        7.2139892071
Ti         1.8906059582        7.5662075794        7.2093728520
Ti         0.0005939232        9.4603344072        2.4010382106
Ti         9.4603021660        1.8905871844        4.8069132473
Ti         7.5662103261        0.0005854508       -0.0040382780
Ti         3.7786984626        3.7787040707        0.0000017685
Ti        13.2380445104       13.2380525048        4.8075191350
Ti        11.3481622775        5.6728811764        2.4017627968
Ti         5.6728856494       11.3481492956        7.2132581510
Ti        13.2380357228        3.7786034006        7.2084603415
Ti         3.7786049440       13.2380323111        2.4065699618
Ti         5.6729331695        5.6729395225        4.8075118083
Ti        11.3482703363       11.3482757767        0.0000021323
Ti        11.3483445051       13.2380392113        2.4058570282
Ti         5.6729050724        3.7787147161        7.2124499980
Ti         3.7786354135       11.3481870266       -0.0007274067
Ti        13.2380543449        5.6728722559        4.8116104243
Ti         5.6728802780       13.2380535370        4.8034176716
Ti        11.3481761770        3.7786296457        0.0007300455
Ti        13.2380450517       11.3483318496        7.2091670170
Ti         3.7787116861        5.6729117953        2.4025769476
Ti         3.7787095674        7.5661752488        0.0011522854
Ti        13.2380549799        9.4603501558        4.8102519170
Ti         7.5661699891        5.6729183804        2.4037190701
Ti         9.4602978807       11.3481842054        7.2119169384
Ti        13.2380485737        7.5662231381        7.2072069648
Ti         3.7787096154        9.4602280428        2.4038212297
Ti         9.4602357762        5.6729310480        4.8087586946
Ti         7.5662075666       11.3481603087       -0.0019584340
Ti        11.3481922084        9.4602929278        2.4030941268
Ti         5.6729203137        7.5661623219        7.2112909143
Ti         5.6729342862        9.4602363336        4.8062481833
Ti        11.3481513844        7.5662046622        0.0019514906
Ti         9.4602240689        3.7786994846        7.2111914800
Ti         7.5662290767       13.2380486429        2.4078152062
Ti         7.5661677964        3.7787081134       -0.0011546316
Ti         9.4603503656       13.2380614221        4.8047704230
Ti         7.5661577135        7.5661658757        0.0000035108
Ti         9.4602561334        9.4602519407        4.8075109800
Ti         7.5661802374        9.4602252417        2.4049712573
Ti         9.4602195465        7.5661747689        7.2100496842
O         0.0010790283        0.0017673084        1.9924234687
O         1.8840601126        1.8890539610        6.7974005264
O         0.0018103987        1.8839737342        4.3954284332
O         1.8889932539        0.0011245947        9.2018873918
O         1.8839752044        0.0018163024        5.2195963664
O         0.0011231559        1.8889901203        0.4131324462
O         1.8890444057        1.8840572123        2.8176232550
O         0.0017686661        0.0010818896        7.6225974649
O         0.0011461693        3.7787517105        1.9929365480
O         1.8839890658       13.2367772392        6.7991573566
O        11.3496699211        1.8840514424        4.3935857805
O         5.6715762217        0.0011731993        9.2049920514
O         1.8840438801        3.7788249270        5.2189779491
O         0.0010866053       13.2368103017        0.4113537690
O         5.6716157754        1.8840913721        2.8144234365
O        11.3497156716        0.0011165284        7.6244479883
O         3.7787453757        0.0011454958        7.6220840173
O        13.2367764199        1.8839868784        2.8158683254
O        13.2368104182        0.0010826457        9.2036664014
O         3.7788284641        1.8840544698        4.3960391910
O         1.8840990283        5.6715955350        6.8006020456
O         0.0011174292       11.3497180002        1.9905685332
O         0.0011754598        5.6715902227        0.4100284751
O         1.8840528202       11.3496727247        5.2214282002
O         0.0011682178        7.5675333132        1.9936910738
O         1.8840584291        9.4601146614        6.7997272168
O         7.5675209104        1.8840916701        4.3968058685
O         9.4601846098        0.0011439589        9.2041418343
O         1.8840831879        7.5675174519        5.2182205937
O         0.0011460166        9.4601671045        0.4108843307
O         9.4601027110        1.8840523914        2.8152925247
O         7.5675450586        0.0011699836        7.6213389056
O         3.7679741692        0.0018893398        1.9913504283
O        13.2373041494        1.8889892535        6.7981179879
O         0.0019234620        5.6653798650        4.3943548883
O         1.8890388480       11.3544407181        9.2011850567
O        13.2373299303        0.0017699291        5.2188387616
O         3.7682063165        1.8891650351        0.4140887356
O         1.8892056851        5.6654927121        2.8184949759
O         0.0018036746       11.3545138385        7.6233142135
O        11.3544436057        1.8890425448        0.4138283699
O         5.6653701304        0.0019195160        5.2206538272
O         5.6654971374        1.8891929906        6.7965200055
O        11.3545103319        0.0018076248        1.9917102416
O         1.8891574272        3.7682076309        9.2009313328
O         0.0017706742       13.2373294762        4.3961774008
O         0.0018844084        3.7679622879        7.6236667059
O         1.8889919404       13.2373146819        2.8168979439
O         3.7683858389        3.7789459601        1.9922629175
O        13.2373403926       13.2368216675        6.7998983957
O        11.3495256629        5.6654396219        4.3926955948
O         5.6716019116       11.3544155447        9.2043825569
O        13.2372681310        3.7787590076        5.2183348342
O         3.7679794728       13.2367044915        0.4124288366
O         5.6716522946        5.6655088973        2.8147008003
O        11.3496812325       11.3544460390        7.6251511524
O        11.3545048903       13.2367702591        0.4120711075
O         5.6654513851        3.7790085019        5.2194264466
O         3.7788221704       11.3544611620        7.6227088657
O        13.2366741515        5.6654269276        2.8169297216
O         5.6654315443       13.2366864125        6.7980918878
O        11.3544525791        3.7788099963        1.9923155856
O        13.2367793559       11.3545028386        9.2029485676
O         3.7789957602        5.6654688877        4.3956015316
O         5.6655119618        5.6716656495        6.8003275585
O        11.3544367356       11.3496792392        1.9898733130
O        13.2367086843        3.7679949449        9.2025940311
O         3.7787506779       13.2372615403        4.3966897392
O        11.3544239426        5.6715939941        0.4106425829
O         5.6654205962       11.3495292648        5.2223279858
O         3.7789605646        3.7683751474        7.6227665665
O        13.2368171717       13.2373399178        2.8151217923
O        13.2372914920       11.3497176763        5.2206990499
O         3.7685177578        5.6716381636        0.4106401811
O         5.6715920754       13.2372629730        2.8137933826
O        11.3495667454        3.7681788708        7.6254166708
O         3.7681805493       11.3495715208        1.9896083350
O        13.2372576887        5.6715873446        6.8012314491
O        11.3497205830       13.2372869029        4.3943238300
O         5.6716506331        3.7685173303        9.2043802449
O         3.7684946632        7.5674708916        1.9930712231
O        13.2372816339        9.4601807452        6.8003755834
O         7.5674807283        5.6654558861        4.3965268093
O         9.4601081682       11.3544540658        9.2035034900
O        13.2372474796        7.5675392419        5.2175884690
O         3.7683762444        9.4599793615        0.4115778962
O         9.4599345204        5.6655029203        2.8157515013
O         7.5675125395       11.3544275751        7.6219423496
O        11.3544657518        9.4601190435        0.4115146471
O         5.6654506243        7.5674587358        5.2184909320
O         5.6655077319        9.4599240707        6.7992634083
O        11.3544225090        7.5675224482        1.9930767103
O         9.4599669679        3.7683832418        9.2034392596
O         7.5675419621       13.2372389417        4.3974390798
O         7.5674608043        3.7684944119        7.6219405598
O         9.4601815097       13.2372889532        2.8146511813
O         7.5742928765        0.0019172315        1.9906247086
O         9.4705136927        1.8891606512        6.7971998372
O         0.0018911434        9.4707235207        4.3951302758
O         1.8892053253        7.5741919553        9.2002974475
O         9.4707208682        0.0018869081        5.2198922212
O         7.5742044775        1.8891977773        0.4147206857
O         1.8891588600        9.4705191922        2.8178237915
O         0.0019235172        7.5742783665        7.6243894815
O         7.5741640364        3.7790048833        1.9918599384
O         9.4707352082       13.2367085174        6.7988560792
O        11.3495707423        9.4705043419        4.3933777150
O         5.6716478732        7.5741805401        9.2040909582
O         9.4703194296        3.7789436690        5.2190030894
O         7.5742546255       13.2366748726        0.4131422386
O         5.6716349100        9.4702023124        2.8143873368
O        11.3495203362        7.5742066248        7.6260490315
O         3.7789977982        7.5741803420        7.6231565396
O        13.2367165093        9.4707408499        2.8161621089
O        13.2366677658        7.5742639845        9.2018673282
O         3.7789462034        9.4703104546        4.3960175773
O         9.4702031296        5.6716385421        6.8006253646
O         7.5742160292       11.3495272814        1.9889666638
O         7.5741706499        5.6716613064        0.4109298668
O         9.4704996666       11.3495575027        5.2216388260
O         7.5741630418        7.5674648262        1.9927936741
O         9.4703388119        9.4599945110        6.7997032675
O         7.5674590705        9.4701885578        4.3968261036
O         9.4599308306        7.5741862007        9.2030423570
O         9.4701781023        7.5674902475        5.2181917716
O         7.5741823503        9.4599216334        0.4119834319
O         9.4599867629        9.4703339848        2.8153255344
O         7.5674728472        7.5741578073        7.6222344127
     192
 i =        3, E =     -5781.2569255548
Ti         0.0006885761        0.0006786168        0.0000007424
Ti         1.8888620953        1.8888715963        4.8075082741
Ti         0.0007156503        1.8887919682        2.4020481642
Ti         1.8888068479        0.0007133558        7.2129709239
Ti         0.0007559374        3.7756831868        0.0028924054
Ti         1.8888219538       13.2378282719        4.8057770307
Ti        11.3498191169        1.8888544236        2.4036961692
Ti         5.6712235033        0.0007836024        7.2159780302
Ti         1.8889402119        3.7757572701        7.2100290620
Ti         0.0006909059       13.2378327607        2.4037859122
Ti         5.6712542362        1.8890207384        4.8044691687
Ti        11.3498575367        0.0007023592       -0.0016616855
Ti         3.7756908258        0.0007598266       -0.0028870335
Ti        13.2378268589        1.8888178453        4.8092400498
Ti        13.2378459107        0.0006904857        7.2112437106
Ti         3.7757621872        1.8889502005        2.4049889480
Ti         1.8890195517        5.6712632448        4.8105458561
Ti         0.0007049362       11.3498645056        0.0016502552
Ti         0.0007833807        5.6712234896        2.3990317466
Ti         1.8888637099       11.3498174260        7.2113177403
Ti         0.0007860387        7.5679954786        0.0046542043
Ti         1.8889597586        9.4631708227        4.8086352269
Ti         7.5679876724        1.8890136018        2.4067289276
Ti         9.4632143391        0.0007556169        7.2140584599
Ti         1.8890121986        7.5679797745        7.2082956729
Ti         0.0007583074        9.4632138274        2.4009692884
Ti         9.4631684718        1.8889621793        4.8063826919
Ti         7.5679863003        0.0007863481       -0.0046469848
Ti         3.7758580545        3.7758632058        0.0000004195
Ti        13.2378573085       13.2378632714        4.8075195573
Ti        11.3496800385        5.6712498737        2.4006546900
Ti         5.6712530360       11.3496663652        7.2143643626
Ti        13.2377764033        3.7757027699        7.2083595852
Ti         3.7757052252       13.2377748860        2.4066680460
Ti         5.6713151345        5.6713200728        4.8075091364
Ti        11.3498130794       11.3498182491        0.0000009987
Ti        11.3498722530       13.2378201683        2.4054368738
Ti         5.6712710443        3.7759094407        7.2129583381
Ti         3.7757464646       11.3497382076       -0.0012835814
Ti        13.2377689155        5.6712338133        4.8122517604
Ti         5.6712406099       13.2377676036        4.8027734491
Ti        11.3497278600        3.7757428685        0.0012844423
Ti        13.2378245470       11.3498591932        7.2095885832
Ti         3.7759059298        5.6712780429        2.4020649847
Ti         3.7759043265        7.5679474307        0.0016345301
Ti        13.2377986499        9.4632298705        4.8103207097
Ti         7.5679227412        5.6713054023        2.4036926981
Ti         9.4631633662       11.3497331937        7.2124423655
Ti        13.2377628047        7.5679998685        7.2065975846
Ti         3.7758649260        9.4630463290        2.4038524930
Ti         9.4630152797        5.6712921889        4.8093049722
Ti         7.5679763278       11.3496803223       -0.0030314079
Ti        11.3497404074        9.4631582323        2.4025688269
Ti         5.6713052871        7.5679161460        7.2113199281
Ti         5.6712933565        9.4630174165        4.8057037000
Ti        11.3496722600        7.5679736953        0.0030235563
Ti         9.4630418252        3.7758583042        7.2111595918
Ti         7.5680066755       13.2377624317        2.4084250651
Ti         7.5679414687        3.7759054257       -0.0016365545
Ti         9.4632289717       13.2378090294        4.8047001474
Ti         7.5679108938        7.5679192936        0.0000024125
Ti         9.4630748010        9.4630729041        4.8075096332
Ti         7.5679570063        9.4630049331        2.4054872008
Ti         9.4630011264        7.5679501554        7.2095325949
O         0.0014035140        0.0016729620        1.9918687810
O         1.8845664267        1.8876225988        6.7975569633
O         0.0016856666        1.8844589776        4.3961843426
O         1.8875575554        0.0014590203        9.2007869468
O         1.8844609147        0.0016872026        5.2188407569
O         0.0014579660        1.8875578601        0.4142362832
O         1.8876193008        1.8845683681        2.8174630625
O         0.0016742721        0.0014027346        7.6231498935
O         0.0014508844        3.7766575350        1.9914572031
O         1.8844581732       13.2368268041        6.7999406041
O        11.3510340313        1.8845693792        4.3938130743
O         5.6708681626        0.0014329374        9.2046142006
O         1.8845520553        3.7767034828        5.2191501106
O         0.0014010355       13.2368353398        0.4118801085
O         5.6709059962        1.8845308379        2.8135147438
O        11.3510930609        0.0014583442        7.6254837908
O         3.7766540903        0.0014520802        7.6235593738
O        13.2368277002        1.8844568819        2.8150823510
O        13.2368353770        0.0014000893        9.2031369983
O         3.7767076385        1.8845553936        4.3958648359
O         1.8845287719        5.6708857659        6.8015087269
O         0.0014608659       11.3510949736        1.9895332820