     192
 i =        1, E =     -5781.2560678447
Ti         0.0006648086        0.0006641285       -0.0000007610
Ti        -0.0007299226       -0.0007303546        0.0000013508
Ti         0.0006659615       -0.0007521865       -0.0005891329
Ti        -0.0007520786        0.0006675592        0.0005911571
Ti         0.0006698220       -0.0012083013        0.0002835556
Ti        -0.0007530748       -0.0007136268       -0.0005904159
Ti         0.0007143011       -0.0007337747        0.0000012114
Ti        -0.0002487537        0.0006730295        0.0004108622
Ti        -0.0007041403       -0.0011995431        0.0003008676
Ti         0.0006653135       -0.0007118101        0.0000020242
Ti        -0.0002516398       -0.0006867944        0.0001790731
Ti         0.0007367133        0.0006655160       -0.0005872833
Ti        -0.0012100651        0.0006708542       -0.0002823495
Ti        -0.0007115726       -0.0007507619        0.0005937773
Ti        -0.0007095687        0.0006660936       -0.0000021809
Ti        -0.0011974286       -0.0007089303       -0.0002995186
Ti        -0.0006887704       -0.0002483345       -0.0001777238
Ti         0.0006673512        0.0007357163        0.0005891889
Ti         0.0006730745       -0.0002473626       -0.0004090224
Ti        -0.0007350923        0.0007144717       -0.0000004384
Ti         0.0006730646        0.0002926895        0.0004109708
Ti        -0.0007082014        0.0012126705       -0.0003031423
Ti         0.0002978423       -0.0006903807       -0.0001771330
Ti         0.0012205140        0.0006692338        0.0002784876
Ti        -0.0006897071        0.0002973336        0.0001754091
Ti         0.0006705559        0.0012215217       -0.0002769038
Ti         0.0012118927       -0.0007049365        0.0003028545
Ti         0.0002941388        0.0006725837       -0.0004106158
Ti        -0.0011821642       -0.0011795709       -0.0000011187
Ti        -0.0007060428       -0.0007083203        0.0000017752
Ti         0.0006705028       -0.0002514014        0.0001760134
Ti        -0.0002515083        0.0006711529       -0.0001771448
Ti        -0.0007136024       -0.0012135767       -0.0002871280
Ti        -0.0012103344       -0.0007117346        0.0002860917
Ti        -0.0002516964       -0.0002541736       -0.0000015949
Ti         0.0007161485        0.0007157739       -0.0000003127
Ti         0.0007356698       -0.0007094736        0.0005906875
Ti        -0.0002531776       -0.0011703351        0.0001105733
Ti        -0.0012011844        0.0006868792        0.0002991220
Ti        -0.0007121279       -0.0002470386        0.0004103574
Ti        -0.0002485702       -0.0007134660       -0.0004113444
Ti         0.0006880085       -0.0011985259       -0.0002983965
Ti        -0.0007101209        0.0007371280       -0.0005933438
Ti        -0.0011689065       -0.0002527910       -0.0001141279
Ti        -0.0011708917        0.0002960319        0.0001139038
Ti        -0.0007094004        0.0012231225        0.0002805254
Ti         0.0002986823       -0.0002521337        0.0000025921
Ti         0.0012112650        0.0006893523       -0.0003044147
Ti        -0.0007129347        0.0002952781       -0.0004155655
Ti        -0.0011833090        0.0011932553        0.0000036413
Ti         0.0011803487       -0.0002525381        0.0001163729
Ti         0.0002959032        0.0006710643        0.0001744644
Ti         0.0006884260        0.0012091674        0.0003033801
Ti        -0.0002533672        0.0002981634       -0.0000004723
Ti        -0.0002532688        0.0011817812       -0.0001146467
Ti         0.0006701484        0.0002961947       -0.0001726099
Ti         0.0011914645       -0.0011806368       -0.0000045082
Ti         0.0002959243       -0.0007118485        0.0004141302
Ti         0.0002980273       -0.0011694235       -0.0001138223
Ti         0.0012226252       -0.0007117537       -0.0002803318
Ti         0.0002977433        0.0002973277        0.0000010265
Ti         0.0011943386        0.0011928364       -0.0000010375
Ti         0.0003023307        0.0011772685        0.0001177972
Ti         0.0011793692        0.0002987062       -0.0001202351
O        -0.0001376461        0.0000420919       -0.0002150114
O         0.0004456147        0.0002890031        0.0000331839
O         0.0000629288        0.0004820217        0.0001366366
O         0.0003092935       -0.0001293690       -0.0002868999
O         0.0004841462        0.0000580038       -0.0001364741
O        -0.0001287169        0.0003094593        0.0002895831
O         0.0002915836        0.0004495727       -0.0000352880
O         0.0000378250       -0.0001388357        0.0002148448
O        -0.0001235403       -0.0006367853       -0.0002533896
O         0.0004838963       -0.0000710171        0.0001399809
O        -0.0003111776        0.0004547866        0.0000418219
O        -0.0001349807       -0.0001183521       -0.0004199314
O         0.0003945125       -0.0006347912       -0.0000558683
O        -0.0001412326       -0.0000496653        0.0002114664
O        -0.0001363657        0.0003835843        0.0001190249
O        -0.0003290728       -0.0001286716        0.0002836856
O        -0.0006359514       -0.0001242602        0.0002503970
O        -0.0000753063        0.0004821406       -0.0001417408
O        -0.0000472311       -0.0001408475       -0.0002148570
O        -0.0006353782        0.0003959105        0.0000534102
O         0.0003767380       -0.0001364270       -0.0001183902
O        -0.0001284108       -0.0003254826       -0.0002820457
O        -0.0001214635       -0.0001373227        0.0004197788
O         0.0004579042       -0.0003147396       -0.0000413286
O        -0.0001192419        0.0001547858       -0.0004187246
O         0.0003983451        0.0006279293        0.0000619582
O         0.0001518319        0.0003826861       -0.0001164123
O         0.0006319680       -0.0001238105       -0.0002470311
O         0.0003854869        0.0001522318        0.0001159764
O        -0.0001238879        0.0006297365        0.0002460567
O         0.0006286777        0.0003976659       -0.0000616322
O         0.0001521169       -0.0001194831        0.0004170452
O        -0.0006048664        0.0000975014        0.0002032575
O         0.0001473309        0.0003079245       -0.0002910326
O         0.0001180506       -0.0006196431        0.0002212031
O         0.0002931590       -0.0004655271        0.0000279788
O         0.0001662950        0.0000376664        0.0002198622
O        -0.0005930719        0.0002991989       -0.0001008734
O         0.0003193168       -0.0006111154       -0.0001328626
O         0.0000636284       -0.0005041371       -0.0001295266
O        -0.0004689648        0.0002918303       -0.0000295654
O        -0.0006190415        0.0001156750       -0.0002194480
O        -0.0006101815        0.0003203545        0.0001341832
O        -0.0005054537        0.0000643869        0.0001282863
O         0.0002992098       -0.0005924127        0.0001017141
O         0.0000378756        0.0001672666       -0.0002229983
O         0.0000992195       -0.0006021978       -0.0002046858
O         0.0003091787        0.0001443039        0.0002932950
O        -0.0005863015       -0.0006130764        0.0001397719
O         0.0001605871       -0.0000495037       -0.0002143030
O        -0.0003366585       -0.0006116912        0.0001394145
O        -0.0001359594       -0.0003952924       -0.0001204395
O         0.0001408934       -0.0006366161        0.0002559199
O        -0.0006035204       -0.0001100747       -0.0002061960
O        -0.0001246297       -0.0006084360       -0.0000834276
O        -0.0003127438       -0.0004740818       -0.0000367527
O        -0.0005050878       -0.0000723678       -0.0001346514
O        -0.0006125845       -0.0005928121       -0.0002246576
O        -0.0006353729       -0.0004113268       -0.0000512963
O        -0.0001286162       -0.0006169114       -0.0002230916
O        -0.0006163015       -0.0001280778        0.0002206624
O        -0.0004100798       -0.0006345518        0.0000506420
O        -0.0000727457       -0.0005041613        0.0001344716
O        -0.0005908478       -0.0006120501        0.0002210491
O        -0.0006084210       -0.0001240231        0.0000842072
O        -0.0004690258       -0.0003109705        0.0000380460
O        -0.0001082994       -0.0006055030        0.0002059542
O        -0.0006392680        0.0001462739       -0.0002569832
O        -0.0003975771       -0.0001357947        0.0001203854
O        -0.0006124049       -0.0003410265       -0.0001378504
O        -0.0006119384       -0.0005848674       -0.0001378877
O        -0.0000516872        0.0001590551        0.0002166829
O         0.0001511255       -0.0003318260        0.0002874021
O        -0.0005747511       -0.0001302355        0.0000317039
O        -0.0001354477        0.0001302672        0.0004205378
O        -0.0003182012       -0.0005908691       -0.0001061546
O        -0.0005895629       -0.0003141086        0.0001072981
O         0.0001333590       -0.0001364632       -0.0004208038
O        -0.0003301404        0.0001519507       -0.0002883455
O        -0.0001295328       -0.0005753339       -0.0000314864
O        -0.0005740315        0.0001483225       -0.0000288276
O         0.0001363057        0.0006322141       -0.0002477492
O         0.0001375897       -0.0006109176        0.0000841202
O         0.0006279446       -0.0004114199        0.0000587494
O         0.0001354357        0.0001513126        0.0004195202
O        -0.0005847064        0.0006030399       -0.0001451406
O         0.0005805097       -0.0006102997       -0.0002278623
O         0.0001532887       -0.0003989070        0.0001196078
O        -0.0004133088        0.0006271585       -0.0000598392
O        -0.0006108580        0.0001393954       -0.0000837359
O        -0.0006095485        0.0005833143        0.0002273636
O        -0.0003950953        0.0001536412       -0.0001204855
O         0.0006067739       -0.0005865771        0.0001449803
O         0.0001507162        0.0001395954       -0.0004206215
O         0.0001466342       -0.0005746273        0.0000316111
O         0.0006313762        0.0001355972        0.0002485171
O         0.0006688554        0.0001203659        0.0002220137
O         0.0005488091        0.0002984386        0.0000975695
O         0.0000897019        0.0005595439        0.0002012218
O         0.0003163398        0.0006617847        0.0001348247
O         0.0005604368        0.0000907788       -0.0002012583
O         0.0006615386        0.0003196038       -0.0001366491
O         0.0002995258        0.0005461436       -0.0000982177
O         0.0001189796        0.0006685608       -0.0002192686
O         0.0006605867       -0.0005907796        0.0002222781
O         0.0005596462       -0.0001021152        0.0002053268
O        -0.0003201520        0.0005496035        0.0001047865
O        -0.0001242417        0.0006594813        0.0000817017
O         0.0005437121       -0.0006183141       -0.0001338127
O         0.0006681133       -0.0001317973       -0.0002217158
O        -0.0001281691        0.0005343174        0.0000362004
O        -0.0003333378        0.0006616850       -0.0001370128
O        -0.0005890048        0.0006615977       -0.0002227325
O        -0.0001084167        0.0005589681       -0.0002055681
O        -0.0001266585        0.0006684486        0.0002220327
O        -0.0006190628        0.0005434672        0.0001333084
O         0.0005343531       -0.0001274841       -0.0000372803
O         0.0006616166       -0.0003339551        0.0001382862
O         0.0006588962       -0.0001240939       -0.0000812938
O         0.0005504446       -0.0003194322       -0.0001047761
O         0.0006578731        0.0001413862        0.0000785937
O         0.0005442330        0.0006096825        0.0001401256
O         0.0001430464        0.0005371563       -0.0000360302
O         0.0005813298        0.0006612808        0.0002249028
O         0.0005376315        0.0001420410        0.0000364191
O         0.0006607984        0.0005817741       -0.0002265865
O         0.0006077337        0.0005459633       -0.0001386019
O         0.0001405485        0.0006585144       -0.0000791479
     192
 i =        2, E =     -5781.2566142362
Ti         0.0000662843        0.0000680365       -0.0000015337
Ti        -0.0005345899       -0.0005365945        0.0000002864
Ti         0.0000655769       -0.0005322272        0.0004989344
Ti        -0.0005352233        0.0000661847       -0.0004993422
Ti         0.0000698116       -0.0010816778        0.0000289083
Ti        -0.0005361009       -0.0000793167        0.0004900458
Ti         0.0005029279       -0.0005368813       -0.0000167960
Ti        -0.0007000573        0.0000644581       -0.0000780531
Ti        -0.0005360281       -0.0010805826       -0.0005245556
Ti         0.0000671211       -0.0000806417        0.0000092802
Ti        -0.0006915875       -0.0005445280       -0.0004330112
Ti         0.0005042618        0.0000662328        0.0005198832
Ti        -0.0010854265        0.0000691574       -0.0000269956
Ti        -0.0000810850       -0.0005346308       -0.0004870431
Ti        -0.0000808545        0.0000690537       -0.0000087104
Ti        -0.0010793697       -0.0005389322        0.0005273135
Ti        -0.0005468551       -0.0006932809        0.0004345242
Ti         0.0000670540        0.0005018531       -0.0005167236
Ti         0.0000646727       -0.0007004747        0.0000811936
Ti        -0.0005365135        0.0005037553        0.0000202755
Ti         0.0000639380        0.0007596781       -0.0000804538
Ti        -0.0005368954        0.0010607305        0.0005165547
Ti         0.0007499597       -0.0005458381        0.0004341147
Ti         0.0010673485        0.0000682032        0.0000168697
Ti        -0.0005463035        0.0007505029       -0.0004368665
Ti         0.0000687894        0.0010666684       -0.0000180163
Ti         0.0010617335       -0.0005376142       -0.0005162537
Ti         0.0007624447        0.0000646386        0.0000770878
Ti        -0.0010690409       -0.0010699522       -0.0000011936
Ti        -0.0000809683       -0.0000837196       -0.0000013813
Ti         0.0005136591       -0.0006919386       -0.0004514458
Ti        -0.0006928991        0.0005156028        0.0004491405
Ti        -0.0000844686       -0.0010884932       -0.0000395138
Ti        -0.0010873519       -0.0000815005        0.0000377877
Ti        -0.0006874865       -0.0006907273       -0.0000023363
Ti         0.0005046357        0.0005035615       -0.0000016123
Ti         0.0005020862       -0.0000787915       -0.0005074167
Ti        -0.0006843550       -0.0010760846       -0.0000749965
Ti        -0.0010806026        0.0005055605       -0.0005449249
Ti        -0.0000809916       -0.0007012838       -0.0000744561
Ti        -0.0007032203       -0.0000814115        0.0000724743
Ti         0.0005056046       -0.0010786351        0.0005425708
Ti        -0.0000804496        0.0005041040        0.0005065972
Ti        -0.0010746540       -0.0006856430        0.0000711159
Ti        -0.0010745288        0.0007433217       -0.0000705451
Ti        -0.0000841747        0.0010665231        0.0000260116
Ti         0.0007458514       -0.0006849370        0.0000028095
Ti         0.0010625086        0.0005059269        0.0005346296
Ti        -0.0000816885        0.0007620579        0.0000703869
Ti        -0.0010728820        0.0010529494        0.0000119503
Ti         0.0010572665       -0.0006870284       -0.0000586127
Ti         0.0007497826        0.0005124585       -0.0004514533
Ti         0.0005056965        0.0010630263       -0.0005327363
Ti        -0.0006861134        0.0007476302        0.0000015622
Ti        -0.0006905843        0.0010570899        0.0000638492
Ti         0.0005145294        0.0007503821        0.0004532360
Ti         0.0010528514       -0.0010688308       -0.0000100323
Ti         0.0007616887       -0.0000816558       -0.0000700729
Ti         0.0007441685       -0.0010736483        0.0000711285
Ti         0.0010670564       -0.0000874154       -0.0000258526
Ti         0.0007468706        0.0007457144       -0.0000009355
Ti         0.0010491585        0.0010507629       -0.0000016649
Ti         0.0007442443        0.0010566339       -0.0000592886
Ti         0.0010582503        0.0007445000        0.0000578876
O         0.0000270721        0.0000257033       -0.0002012317
O         0.0003101758        0.0000105296        0.0004453766
O         0.0000061193        0.0003063270        0.0001545708
O         0.0000235115        0.0000259591        0.0001097167
O         0.0003061235        0.0000039392       -0.0001555262
O         0.0000260074        0.0000244861       -0.0001087609
O         0.0000150634        0.0003106404       -0.0004466803
O         0.0000265356        0.0000265027        0.0002015344
O         0.0000195740        0.0002359950       -0.0005611799
O         0.0003029681        0.0000209055        0.0001659511
O        -0.0000067985        0.0003113874        0.0004738686
O         0.0000927422        0.0000106120       -0.0004954541
O         0.0003163527        0.0002162226        0.0002226995
O         0.0000255532        0.0000002412        0.0001912702
O         0.0000868249        0.0003047634        0.0001644370
O        -0.0000138775        0.0000273691       -0.0001364037
O         0.0002407415        0.0000199856        0.0005598406
O         0.0000206824        0.0003033831       -0.0001684370
O         0.0000019853        0.0000261381       -0.0001915409
O         0.0002139250        0.0003146482       -0.0002232938
O         0.0003036518        0.0000921801       -0.0001660392
O         0.0000275697       -0.0000154350        0.0001367469
O         0.0000097734        0.0000879413        0.0004946249
O         0.0003111002       -0.0000066587       -0.0004733802
O         0.0000115241       -0.0000998037       -0.0005001526
O         0.0003139008       -0.0002352567       -0.0002088673
O        -0.0000989026        0.0003053762       -0.0001693821
O        -0.0002594382        0.0000197840       -0.0005481717
O         0.0003068441       -0.0000980293        0.0001693995
O         0.0000199554       -0.0002518640        0.0005476640
O        -0.0002301363        0.0003152854        0.0002092728
O        -0.0001044128        0.0000111171        0.0004989879
O         0.0005585907       -0.0000274565        0.0002139734
O        -0.0000130394        0.0000273303        0.0001083366
O        -0.0000281218       -0.0005568424        0.0003523351
O         0.0000161747       -0.0002879121        0.0004376498
O        -0.0000108303        0.0000281932        0.0002051588
O         0.0005404263       -0.0000118252       -0.0004771345
O         0.0000225357       -0.0005420711       -0.0006224598
O         0.0000095446       -0.0002815405       -0.0001465295
O        -0.0002882192        0.0000129478       -0.0004374612
O        -0.0005570257       -0.0000255516       -0.0003508991
O        -0.0005416787        0.0000286612        0.0006227350
O        -0.0002807678        0.0000059889        0.0001437387
O        -0.0000086973        0.0005402613        0.0004770711
O         0.0000264602       -0.0000107919       -0.0002046842
O        -0.0000247974        0.0005605206       -0.0002136342
O         0.0000261552       -0.0000149672       -0.0001076591
O         0.0005092117        0.0001941714       -0.0002366027
O        -0.0000127332       -0.0000035319       -0.0001912004
O        -0.0000163581       -0.0005413291        0.0006514188
O         0.0000885746       -0.0002848755       -0.0001720769
O        -0.0000032587        0.0002363288        0.0005637251
O         0.0005574841        0.0000524378       -0.0002250268
O         0.0001058523       -0.0005287872        0.0000133037
O        -0.0000110129       -0.0002879040       -0.0004646882
O        -0.0002793072        0.0000228868       -0.0001561892
O        -0.0005382177        0.0002345647        0.0000635526
O         0.0002162591       -0.0002949389        0.0002305583
O         0.0000546669       -0.0005568685       -0.0003619192
O        -0.0005561832        0.0000477652        0.0003615657
O        -0.0002933733        0.0002199140       -0.0002312036
O         0.0000175919       -0.0002790683        0.0001571334
O         0.0002388886       -0.0005383160       -0.0000642662
O        -0.0005291009        0.0001014519       -0.0000129983
O        -0.0002863675       -0.0000092705        0.0004645817
O         0.0000493234        0.0005541289        0.0002251068
O         0.0002401243       -0.0000016229       -0.0005648665
O        -0.0002865162        0.0000911724        0.0001718069
O        -0.0005415595       -0.0000198215       -0.0006514841
O         0.0001876773        0.0005112742        0.0002360739
O        -0.0000011286       -0.0000127434        0.0001915422
O        -0.0000098598       -0.0000146856       -0.0001331602
O         0.0004891709        0.0000895765        0.0002085573
O         0.0000911015        0.0000018846        0.0004957771
O         0.0000131122        0.0005449004       -0.0005055456
O         0.0005452433        0.0000127518        0.0005058785
O         0.0000029644        0.0000908764       -0.0004958086
O        -0.0000155296       -0.0000091816        0.0001338462
O         0.0000858152        0.0004889633       -0.0002068970
O         0.0004930305       -0.0000966881       -0.0002113265
O        -0.0000058537       -0.0002566299       -0.0005489570
O        -0.0001201063       -0.0005292528       -0.0000183196
O        -0.0002335590       -0.0002934852       -0.0002155900
O         0.0000048200       -0.0001021484        0.0005007248
O         0.0005105897       -0.0002080005        0.0002192139
O        -0.0002548224       -0.0005383938        0.0000486639
O        -0.0000963020       -0.0002867534        0.0001775533
O        -0.0002959538       -0.0002377597        0.0002156644
O        -0.0005288679       -0.0001129934        0.0000178428
O        -0.0005376973       -0.0002514478       -0.0000495162
O        -0.0002855195       -0.0000994145       -0.0001782344
O        -0.0002044719        0.0005096741       -0.0002187081
O        -0.0001030877        0.0000064491       -0.0005020874
O        -0.0000938111        0.0004930254        0.0002127638
O        -0.0002561369       -0.0000073466        0.0005481188
O         0.0005472682       -0.0000257576        0.0003553863
O        -0.0005621611       -0.0000128922        0.0004667276
O        -0.0000274530       -0.0005778439        0.0002033239
O         0.0000207577        0.0005318810        0.0006250658
O        -0.0005772831       -0.0000251745       -0.0002032128
O         0.0005312838        0.0000249068       -0.0006240744
O        -0.0000102276       -0.0005632593       -0.0004677779
O        -0.0000284387        0.0005478455       -0.0003529701
O         0.0005277742        0.0002321820       -0.0000666611
O        -0.0005794947        0.0000515203        0.0002149805
O         0.0000150459       -0.0005600690        0.0004971177
O         0.0001049707        0.0005164075       -0.0000195099
O        -0.0005269986        0.0001939021        0.0002430120
O         0.0005483865        0.0000534309       -0.0003627004
O         0.0000909004       -0.0005067373        0.0002139244
O        -0.0000137662        0.0005316893       -0.0006505121
O         0.0002361499        0.0005269909        0.0000664172
O         0.0000472816       -0.0005808598       -0.0002148221
O         0.0000577021        0.0005480367        0.0003649972
O         0.0001925354       -0.0005257551       -0.0002446934
O        -0.0005071714        0.0000908270       -0.0002146008
O         0.0005316747       -0.0000160951        0.0006508136
O         0.0005166575        0.0001013434        0.0000184316
O        -0.0005591792        0.0000218122       -0.0004964940
O         0.0005168794       -0.0001144135       -0.0000259330
O        -0.0005300837       -0.0002118003       -0.0002280149
O        -0.0000930599       -0.0005044053       -0.0002175520
O        -0.0002525804        0.0005277678       -0.0000515435
O        -0.0005028208       -0.0001010482        0.0002182388
O         0.0005275459       -0.0002475236        0.0000512886
O        -0.0002090526       -0.0005291268        0.0002275111
O        -0.0001181659        0.0005174774        0.0000253623
     192
 i =        3, E =     -5781.2569255548
Ti         0.0000284067        0.0000297773       -0.0000006996
Ti        -0.0000636004       -0.0000648873        0.0000001625
Ti         0.0000203623       -0.0000535836        0.0005720197
Ti        -0.0000561762        0.0000208842       -0.0005732339
Ti         0.0000195627       -0.0000851774        0.0002348658
Ti        -0.0000559098       -0.0000101508        0.0005631488
Ti         0.0000604877       -0.0000647202       -0.0000281578
Ti        -0.0004017278        0.0000079946        0.0003321845
Ti        -0.0000696763       -0.0000963862       -0.0007958121
Ti         0.0000290566       -0.0000192628        0.0000087304
Ti        -0.0004024260       -0.0000880330       -0.0009050355
Ti         0.0000530463        0.0000210029        0.0006024573
Ti        -0.0000872030        0.0000194246       -0.0002332911
Ti        -0.0000118560       -0.0000549529       -0.0005617031
Ti        -0.0000201022        0.0000299074       -0.0000084139
Ti        -0.0000964113       -0.0000710445        0.0007971910
Ti        -0.0000889100       -0.0004041089        0.0009065373
Ti         0.0000211866        0.0000508559       -0.0006001641
Ti         0.0000080504       -0.0004027546       -0.0003307693
Ti        -0.0000650624        0.0000603015        0.0000295031
Ti         0.0000072794        0.0004153096        0.0003266732
Ti        -0.0000696061        0.0000727537        0.0007729137
Ti         0.0004139977       -0.0000871243        0.0009005175
Ti         0.0000641440        0.0000190738        0.0002102647
Ti        -0.0000877100        0.0004143284       -0.0009024564
Ti         0.0000197741        0.0000633155       -0.0002117261
Ti         0.0000733966       -0.0000708084       -0.0007723083
Ti         0.0004173295        0.0000081688       -0.0003291690
Ti        -0.0000986811       -0.0000995577       -0.0000004142
Ti        -0.0000206357       -0.0000217006       -0.0000009160
Ti         0.0000826746       -0.0004030492       -0.0009322222
Ti        -0.0004029418        0.0000839032        0.0009314877
Ti        -0.0000101460       -0.0000882675       -0.0002454715
Ti        -0.0000876147       -0.0000085316        0.0002447220
Ti        -0.0004197656       -0.0004209124       -0.0000012428
Ti         0.0000602248        0.0000599566       -0.0000006585
Ti         0.0000518799       -0.0000107483       -0.0005914329
Ti        -0.0004052019       -0.0001175570        0.0001400379
Ti        -0.0000954536        0.0000651550       -0.0008245684
Ti        -0.0000004553       -0.0004020543        0.0003397673
Ti        -0.0004035678       -0.0000004638       -0.0003406117
Ti         0.0000652413       -0.0000957851        0.0008235245
Ti        -0.0000114630        0.0000529150        0.0005904049
Ti        -0.0001165564       -0.0004065544       -0.0001419183
Ti        -0.0001153272        0.0004171614        0.0001355260
Ti        -0.0000112696        0.0000628969        0.0002200316
Ti         0.0004303519       -0.0004180292       -0.0000067099
Ti         0.0000738899        0.0000664598        0.0008017374
Ti        -0.0000010283        0.0004152933       -0.0003370562
Ti        -0.0000999715        0.0000789787        0.0000248621
Ti         0.0000975295       -0.0004057511        0.0001667573
Ti         0.0004142157        0.0000807318       -0.0009265044
Ti         0.0000661581        0.0000746752       -0.0008008902
Ti        -0.0004183233        0.0004313797        0.0000087867
Ti        -0.0004081523        0.0000965435       -0.0001641830
Ti         0.0000818845        0.0004149737        0.0009279183
Ti         0.0000785240       -0.0000986151       -0.0000228217
Ti         0.0004149878       -0.0000018050        0.0003367553
Ti         0.0004174487       -0.0001152934       -0.0001348980
Ti         0.0000640200       -0.0000130629       -0.0002190489
Ti         0.0004314125        0.0004307388       -0.0000009471
Ti         0.0000765517        0.0000775507       -0.0000003913
Ti         0.0004150527        0.0000966328        0.0001582267
Ti         0.0000968472        0.0004167624       -0.0001592086
O        -0.0000901374       -0.0002122001        0.0000172520
O         0.0000155656        0.0000332726        0.0005005571
O        -0.0002212663        0.0000154728       -0.0000575980
O         0.0000589722       -0.0000912287        0.0005584766
O         0.0000152086       -0.0002216985        0.0000566760
O        -0.0000910786        0.0000581235       -0.0005588864
O         0.0000348433        0.0000148392       -0.0005005092
O        -0.0002110512       -0.0000900740       -0.0000166294
O        -0.0000835130        0.0003340436       -0.0003245837
O         0.0000157760        0.0002483320       -0.0000579127
O        -0.0000221019        0.0000135908        0.0005174291
O         0.0002644854       -0.0000801869       -0.0002677507
O         0.0000315898        0.0003165223        0.0004203310
O        -0.0000896840        0.0002380780       -0.0000150713
O         0.0002530789        0.0000406754        0.0003825416
O        -0.0000458773       -0.0000916305       -0.0005755265
O         0.0003366063       -0.0000837759        0.0003248738
O         0.0002481990        0.0000159382        0.0000571493
O         0.0002396305       -0.0000895220        0.0000152527
O         0.0003152511        0.0000308392       -0.0004201447
O         0.0000417861        0.0002571879       -0.0003837517
O        -0.0000921481       -0.0000475065        0.0005755793