     192
 i =        1, E =     -5769.3463880928
Ti        -0.0025220329        0.0110845512       -0.0050938167
Ti        -0.0103968206       -0.0122764908       -0.0213336965
Ti        -0.0091055393       -0.0061710522       -0.0155586189
Ti        -0.0094699938        0.0132199271        0.0150513258
Ti        -0.0065156088        0.0015610903        0.0159583017
Ti         0.0004645425       -0.0006903314        0.0007369726
Ti         0.0033454535       -0.0035100366       -0.0232985682
Ti        -0.0004126198        0.0044970190       -0.0009024496
Ti         0.0011873306       -0.0097252521       -0.0063001569
Ti        -0.0108320122       -0.0060393734       -0.0000026974
Ti        -0.0169568933       -0.0020296015        0.0001949664
Ti        -0.0103189398       -0.0099642641       -0.0010054450
Ti         0.0026689590       -0.0048604749       -0.0004259818
Ti         0.0158287203        0.0111378710        0.0257324100
Ti        -0.0177559803        0.0072893725        0.0054662376
Ti         0.0037259946        0.0203546915       -0.0196999898
Ti        -0.0028015986        0.0036909079       -0.0137066980
Ti         0.0044739738       -0.0236120513       -0.0059782657
Ti         0.0045472158        0.0089672345       -0.0046100481
Ti         0.0172951501        0.0101486031       -0.0295178069
Ti        -0.0115272788        0.0161747140       -0.0086755888
Ti        -0.0026979573       -0.0149837240       -0.0310549109
Ti        -0.0009585699       -0.0157931396       -0.0038628172
Ti        -0.0130563582        0.0162761340       -0.0018632581
Ti         0.0001423031       -0.0052087577        0.0120940850
Ti        -0.0052143064       -0.0043126198        0.0057704514
Ti         0.0045627761        0.0040655730        0.0080646422
Ti         0.0193436439        0.0105851374        0.0314729670
Ti         0.0164285192       -0.0015048470        0.0014576621
Ti        -0.0123473871        0.0270870858       -0.0124111109
Ti         0.0126430826       -0.0099137319        0.0014466847
Ti         0.0012832876       -0.0027507589        0.0131490181
Ti         0.0021606007        0.0106419937       -0.0039676484
Ti         0.0044416309        0.0222462474        0.0059482789
Ti         0.0149123464       -0.0107539006       -0.0100226147
Ti         0.0069404816        0.0020297211       -0.0148644050
Ti         0.0037499590        0.0072622154       -0.0023289184
Ti        -0.0074250313       -0.0002182563        0.0029747478
Ti        -0.0058448899       -0.0031040862       -0.0079090508
Ti        -0.0099135792        0.0198591969       -0.0054142368
Ti        -0.0116067562       -0.0134877332       -0.0098563323
Ti         0.0065974580        0.0177172199        0.0061866922
Ti         0.0143548377        0.0089196953        0.0010160412
Ti         0.0031354183        0.0222727210        0.0065954807
Ti         0.0012360323        0.0091730714       -0.0182841820
Ti        -0.0025381776        0.0128632684       -0.0090954965
Ti         0.0083531272        0.0078810948       -0.0004327908
Ti        -0.0073093037        0.0445479652        0.0091844035
Ti        -0.0125064065        0.0032863872        0.0189882359
Ti        -0.0143390288        0.0138321976        0.0054551027
Ti        -0.0049004542        0.0023396756        0.0113083943
Ti         0.0118615891        0.0037950174       -0.0156856006
Ti         0.0144959540        0.0082425764       -0.0069432014
Ti         0.0039133973       -0.0109596484        0.0015371909
Ti        -0.0217818534        0.0086240802        0.0019952235
Ti         0.0032363459        0.0037855060       -0.0015762221
Ti        -0.0003977489        0.0019047708        0.0022305527
Ti         0.0060967689       -0.0114874112       -0.0013795700
Ti         0.0152893591       -0.0051429524        0.0020729437
Ti        -0.0162783226       -0.0074471928        0.0093186802
Ti         0.0020554569        0.0047333333       -0.0055645933
Ti        -0.0040571756        0.0014606461        0.0063432173
Ti        -0.0023769487        0.0089683498        0.0053519151
Ti        -0.0159054989        0.0090133772        0.0098169013
O         0.0005141210        0.0008035529       -0.0115261731
O         0.0092310834       -0.0036566933        0.0163737651
O         0.0126047309       -0.0020152331        0.0039141128
O         0.0019055788       -0.0045473891       -0.0083828124
O         0.0009921540        0.0051771771       -0.0038879089
O         0.0050957216        0.0008850117       -0.0011584002
O         0.0073828272       -0.0082086267        0.0012190638
O         0.0210154210        0.0007382045        0.0080935209
O        -0.0011373265       -0.0055436226       -0.0064074696
O        -0.0009720583       -0.0215155405       -0.0000875942
O        -0.0173453162        0.0006669973        0.0132785278
O        -0.0223406910        0.0028237814       -0.0048426684
O        -0.0038964106        0.0144561584        0.0061826819
O         0.0004808844        0.0058934334        0.0062267471
O        -0.0032686062        0.0054126022       -0.0007364878
O         0.0161296709        0.0001737948        0.0049586413
O        -0.0002491457       -0.0031323301       -0.0035302945
O         0.0011742028        0.0034310942       -0.0100737943
O         0.0086552837        0.0075675401       -0.0074601148
O         0.0068110385        0.0034926273        0.0162501098
O        -0.0009357792        0.0108995318        0.0183705678
O        -0.0046204126       -0.0031588616       -0.0011036258
O        -0.0047344889       -0.0167593081        0.0047370849
O        -0.0018522650        0.0198781338        0.0097199423
O         0.0019017516       -0.0060047618        0.0052636314
O        -0.0122875232        0.0004498786        0.0159973285
O         0.0216104577        0.0054779395        0.0013747283
O         0.0006573334       -0.0009705295       -0.0057142044
O         0.0068560688        0.0001729197       -0.0082186684
O        -0.0014376306       -0.0046712250       -0.0003686119
O         0.0043731333       -0.0059918280       -0.0083410816
O         0.0023308898        0.0018811018       -0.0217750791
O        -0.0013567720       -0.0180541973       -0.0030200202
O         0.0040650737        0.0003409330       -0.0068529074
O         0.0098422314        0.0003670952       -0.0041819400
O        -0.0121382281        0.0009558554        0.0092285460
O         0.0066785850        0.0053677520        0.0093379341
O         0.0008345036       -0.0019091126        0.0088716440
O        -0.0023719239       -0.0069615038       -0.0080952808
O        -0.0307733816        0.0022024363        0.0077451624
O        -0.0016383445       -0.0136167509        0.0100389213
O        -0.0046610526        0.0208739277        0.0017777051
O         0.0080668635       -0.0038234326        0.0006418652
O         0.0037429219        0.0029561379        0.0039764371
O        -0.0140992659       -0.0006961497        0.0064350504
O         0.0111722468        0.0059439887       -0.0090306570
O        -0.0091551570       -0.0000396586       -0.0095222972
O         0.0007455064       -0.0004005349        0.0004653881
O        -0.0073965130       -0.0152849780       -0.0031030111
O         0.0041099733       -0.0161412304        0.0038817407
O         0.0043335988        0.0000220181        0.0028154554
O         0.0023229920       -0.0014558943       -0.0082309805
O        -0.0018491003       -0.0186755176        0.0055069408
O         0.0005391317        0.0004379777       -0.0092287949
O        -0.0139833040       -0.0062276476        0.0062770928
O        -0.0039881377       -0.0005270340       -0.0009813381
O         0.0013980290        0.0102620620       -0.0065134206
O         0.0084086538        0.0009605492        0.0001485191
O         0.0078891099        0.0014192662       -0.0011679014
O        -0.0000122210       -0.0039312990        0.0063119399
O        -0.0015136218        0.0019443482        0.0075820206
O        -0.0085093111       -0.0102200957        0.0027741548
O         0.0026693909        0.0054544716       -0.0037129540
O        -0.0096467558        0.0006481255       -0.0063557873
O        -0.0008993221        0.0029664097        0.0048826482
O         0.0095741341       -0.0196494162        0.0114117538
O         0.0037949954       -0.0039034067        0.0069943771
O         0.0007665352        0.0009346688        0.0092081217
O         0.0055767634       -0.0034478443       -0.0030197031
O        -0.0047591862       -0.0053465900       -0.0035991019
O         0.0087765084        0.0011860162        0.0006724371
O         0.0054897194        0.0059333346        0.0136662511
O         0.0012418448       -0.0432632506        0.0089628582
O         0.0041775065       -0.0020284764        0.0027396590
O        -0.0051071316        0.0080746566        0.0000272144
O         0.0017160635        0.0011517065        0.0007705596
O        -0.0031868296       -0.0169401422        0.0036971880
O         0.0007345487       -0.0018964126       -0.0085022527
O         0.0197230383       -0.0034525016        0.0057865885
O        -0.0138807476       -0.0022133930        0.0012905186
O        -0.0012556955       -0.0171110209        0.0092767925
O        -0.0002147232       -0.0159711305        0.0092630670
O         0.0007554508        0.0007724159        0.0019704370
O        -0.0075071299       -0.0020288874       -0.0118829562
O         0.0023772905       -0.0067905215       -0.0271364615
O        -0.0015091683       -0.0031752720        0.0004511629
O        -0.0246317576        0.0003212136        0.0000051775
O        -0.0001280207       -0.0055052526        0.0026501574
O         0.0015658068       -0.0080730233        0.0139045132
O         0.0011391896       -0.0005753124        0.0051937968
O         0.0038398937        0.0033764861       -0.0026372276
O         0.0061075336        0.0082349520       -0.0068961115
O        -0.0136591730       -0.0035560412       -0.0015912827
O         0.0024202966        0.0039137157       -0.0075314560
O         0.0082692590        0.0056493641        0.0047211749
O        -0.0070961851       -0.0073071751       -0.0099391922
O         0.0033028361        0.0200195778       -0.0055039722
O         0.0089911866       -0.0015205848        0.0047250697
O         0.0011255454        0.0079799679       -0.0078020053
O         0.0013303057        0.0074076563       -0.0009799969
O         0.0035500174       -0.0012465500        0.0050074337
O        -0.0089314625       -0.0015077144       -0.0079751641
O         0.0021024843       -0.0071155494        0.0020607541
O         0.0054435694        0.0004682125        0.0031441614
O        -0.0053908863        0.0071332724       -0.0058267902
O        -0.0000942771       -0.0146541558        0.0035648085
O        -0.0070526842        0.0034558929        0.0032364241
O        -0.0006792452       -0.0040756332        0.0090215456
O        -0.0040085981        0.0039083300        0.0028503095
O        -0.0007943176        0.0086293823        0.0074611765
O         0.0087418107        0.0011443690        0.0096301604
O         0.0256365273        0.0008149952        0.0105580038
O        -0.0012773107        0.0047978394        0.0033278280
O        -0.0111749889       -0.0015987731        0.0005857393
O         0.0040113210       -0.0010430515       -0.0146345621
O        -0.0003128105       -0.0029739180        0.0039703419
O        -0.0093388818        0.0046392304       -0.0033921428
O         0.0030089930        0.0034731339        0.0059248919
O         0.0069602098       -0.0012435961        0.0049951443
O         0.0010961264        0.0079678391        0.0018841611
O        -0.0076192459       -0.0185141534        0.0018568524
O         0.0028962368       -0.0382465879       -0.0019641997
O         0.0257111963        0.0013926506        0.0007461282
O        -0.0045407245        0.0060870929       -0.0085459676
O         0.0049401055       -0.0018970248       -0.0069199013
O         0.0019374817       -0.0124656202        0.0013654816
O        -0.0215553868       -0.0004179287       -0.0069950288
O        -0.0058014152       -0.0030361046        0.0024548621
     192
 i =        2, E =     -5769.4733984714
Ti        -0.0023800852        0.0000145489        0.0033409144
Ti         0.0039857373       -0.0062837212       -0.0050908833
Ti        -0.0075399573       -0.0034168427       -0.0142777848
Ti         0.0011601559        0.0180225195        0.0059812622
Ti         0.0022909467       -0.0031679804        0.0070829497
Ti        -0.0093571054        0.0050294608       -0.0028465320
Ti         0.0001630361        0.0025960599       -0.0057232907
Ti        -0.0009531278        0.0054809116        0.0054542117
Ti        -0.0032706261       -0.0057583959       -0.0053176762
Ti        -0.0028888935       -0.0006803318       -0.0078406456
Ti        -0.0076298905        0.0020451226       -0.0002926609
Ti         0.0019777826        0.0015552365       -0.0066473656
Ti         0.0049905926       -0.0054818372       -0.0015106887
Ti         0.0073282725        0.0124749436        0.0158013035
Ti        -0.0103235122        0.0089597478        0.0005885909
Ti        -0.0026851896        0.0190719885       -0.0096093826
Ti         0.0013390920        0.0003881979       -0.0103119515
Ti        -0.0057680620       -0.0029423313       -0.0016742693
Ti         0.0117356753        0.0030677124       -0.0028348193
Ti         0.0096104215       -0.0053078155       -0.0167616123
Ti        -0.0045881430        0.0031757774       -0.0128036902
Ti        -0.0083926237       -0.0147005801       -0.0109695481
Ti         0.0028112497       -0.0025787363        0.0053082219
Ti        -0.0120941495        0.0117551595       -0.0024420355
Ti        -0.0046139474        0.0005161716        0.0050161204
Ti        -0.0064651210       -0.0029226547        0.0051209292
Ti         0.0031732525        0.0082711452        0.0004550682
Ti         0.0037638990        0.0090701064        0.0096636176
Ti         0.0074892844        0.0061480983        0.0064823091
Ti        -0.0002455496        0.0221095099       -0.0057478592
Ti         0.0048683758       -0.0024871898        0.0024709147
Ti        -0.0007611893       -0.0047071784        0.0059099554
Ti         0.0106432533        0.0079121012       -0.0099633510
Ti        -0.0022645992        0.0133612890       -0.0045042828
Ti         0.0051540963       -0.0054703573       -0.0095192727
Ti         0.0188721053       -0.0062019441       -0.0121690105
Ti         0.0004391435        0.0020877903        0.0055843972
Ti        -0.0028553521        0.0009416038        0.0045766077
Ti        -0.0065034800        0.0030223372       -0.0034656665
Ti        -0.0013156686        0.0090551461       -0.0009008991
Ti        -0.0070833020       -0.0036646287        0.0012652393
Ti         0.0053820827        0.0046125593        0.0063988829
Ti         0.0085145873        0.0022886230        0.0019096190
Ti        -0.0031669640        0.0016426012        0.0093844825
Ti         0.0013035334       -0.0031060866       -0.0124476677
Ti        -0.0020533141       -0.0018430456       -0.0049552271
Ti         0.0068930941        0.0020847141       -0.0085797850
Ti         0.0052468224        0.0187919713       -0.0012747127
Ti        -0.0068436784        0.0052198955        0.0137802787
Ti        -0.0082061239        0.0057122378        0.0050689648
Ti        -0.0091470505        0.0034592590        0.0092374622
Ti        -0.0023030184       -0.0018675833       -0.0016934909
Ti         0.0044162850        0.0017043715       -0.0052417440
Ti         0.0042775375       -0.0062396012       -0.0028255249
Ti        -0.0064238077       -0.0028060551        0.0026971747
Ti         0.0054900929        0.0073987327       -0.0030563386
Ti        -0.0065061786        0.0023714587       -0.0040563799
Ti         0.0064586753       -0.0105518170       -0.0004867974
Ti         0.0040267051        0.0036650031        0.0058694953
Ti        -0.0054351927       -0.0040451486        0.0054645991
Ti        -0.0047590301       -0.0026309159        0.0048575277
Ti        -0.0048982734       -0.0052884488        0.0029673202
Ti         0.0016245822        0.0018177657        0.0052297465
Ti        -0.0067836459        0.0091337929        0.0041896181
O        -0.0005144660        0.0128145319        0.0046871158
O         0.0006785784       -0.0009374406        0.0051664863
O        -0.0004039982       -0.0031905356        0.0046663564
O         0.0069267431        0.0004350081        0.0020967168
O        -0.0006036070        0.0016806275       -0.0073009369
O         0.0015234746       -0.0080922025        0.0040633386
O         0.0032644141       -0.0073743595        0.0042813438
O         0.0062064476        0.0006904105       -0.0016566126
O        -0.0027539454        0.0011057312       -0.0052431656
O        -0.0026373549       -0.0095220820       -0.0002818640
O        -0.0060501038       -0.0004581365        0.0095921217
O        -0.0054800891        0.0010733133       -0.0030588510
O        -0.0024797962        0.0059980763        0.0074918492
O        -0.0010947182       -0.0021329022       -0.0031941498
O         0.0074142941       -0.0019102171        0.0025262659
O         0.0017995921       -0.0014689307        0.0053600655
O         0.0021762260       -0.0040519622       -0.0015650740
O         0.0038987977       -0.0001941917       -0.0042840766
O        -0.0007482056        0.0047572672       -0.0005977726
O         0.0062342707        0.0024703406        0.0095856584
O        -0.0017153740       -0.0013959296        0.0061555293
O        -0.0015676681       -0.0054494145        0.0007060315
O        -0.0032141844       -0.0107022141        0.0046524917
O         0.0005223391        0.0101684237        0.0042217235
O        -0.0054006903       -0.0052731799        0.0064167183
O        -0.0047825752       -0.0007262063        0.0049530199
O         0.0030474641       -0.0009031936       -0.0058521346
O         0.0048221883       -0.0004029491        0.0016158588
O         0.0000130464        0.0078403498       -0.0043134442
O        -0.0054673052        0.0109940390        0.0009927532
O         0.0021401525       -0.0020608196       -0.0049352093
O         0.0029431060        0.0015523394       -0.0116168043
O        -0.0018472065       -0.0128550758       -0.0030629028
O        -0.0011747776        0.0009772964       -0.0022525698
O         0.0055269570        0.0017906123       -0.0000542595
O        -0.0026089436       -0.0015411366        0.0068727219
O        -0.0021522648       -0.0112428366        0.0044977605
O        -0.0004100527        0.0000690918        0.0036730652
O        -0.0075882417       -0.0017060349       -0.0031383978
O        -0.0015291582        0.0008350495        0.0048183577
O        -0.0013928373       -0.0074095192        0.0068180238
O        -0.0020457820       -0.0028534067       -0.0004307370
O        -0.0012794274        0.0072833539        0.0002251707
O        -0.0011814902       -0.0171487913        0.0015717164
O        -0.0058391120        0.0024263754       -0.0034772185
O         0.0032063522       -0.0011139343        0.0026980902
O         0.0019174165        0.0001096530       -0.0046711624
O         0.0113551036       -0.0033111862        0.0040299975
O        -0.0014270913       -0.0192342593       -0.0090389929
O         0.0025679727       -0.0035207625       -0.0085730166
O         0.0047680780       -0.0012690081       -0.0087832185
O        -0.0026910054       -0.0039329370        0.0007585152
O         0.0013641147       -0.0161947132       -0.0006882949
O         0.0011175353       -0.0008769145       -0.0050764042
O        -0.0089310319       -0.0029734054        0.0036676865
O        -0.0065363864       -0.0006993402        0.0061865562
O         0.0014679887        0.0012190937        0.0076916814
O        -0.0012325301       -0.0015569647        0.0029563769
O        -0.0038379501       -0.0038045260        0.0025208666
O        -0.0102957350       -0.0026874409       -0.0010273042
O         0.0012253738       -0.0016466229       -0.0047722493
O        -0.0039198051        0.0110873555       -0.0040879749
O        -0.0089987249       -0.0028255320        0.0035198289
O        -0.0063596333       -0.0025936873        0.0040959535
O        -0.0042662231        0.0050970584        0.0074217054
O         0.0023121627        0.0038316955        0.0004783255
O        -0.0090176317       -0.0001315319       -0.0001420483
O         0.0012072620        0.0014800511       -0.0049091475
O        -0.0000689454       -0.0089231928        0.0072622060
O        -0.0048881257        0.0086623379       -0.0044904073
O         0.0052859238        0.0016145052       -0.0003995586
O        -0.0075815196        0.0006546221        0.0049535425
O         0.0013028705       -0.0006671145        0.0055221510
O         0.0004889547        0.0056441572       -0.0042707905
O        -0.0079544402       -0.0001366125        0.0025274285
O         0.0008452692        0.0036795373        0.0078351842
O        -0.0013396053       -0.0114083069        0.0016327321
O        -0.0001169654       -0.0040565841        0.0021095125
O         0.0118532970       -0.0015218307       -0.0022350862
O        -0.0064340439       -0.0025331825       -0.0050438273
O        -0.0007835011       -0.0025081857       -0.0009547409
O        -0.0014678031       -0.0098672012        0.0063711167
O        -0.0000441872        0.0024214825        0.0081167879
O        -0.0063441767        0.0003860584       -0.0020533633
O        -0.0013645161       -0.0024670800       -0.0132630557
O         0.0014207491        0.0007148405        0.0035291174
O         0.0009731839        0.0012858598       -0.0041604072
O         0.0115683416       -0.0009012215        0.0032511816
O         0.0000137813        0.0088216369       -0.0065559410
O         0.0005428627        0.0024291855        0.0079175369
O        -0.0016369906        0.0035613045       -0.0012294828
O        -0.0010796559       -0.0140381429        0.0027854643
O         0.0003384353       -0.0039416275       -0.0010670058
O         0.0073639625        0.0033255139       -0.0040589682
O         0.0017610657        0.0000163601        0.0019955043
O         0.0025473300       -0.0039958762       -0.0031805846
O        -0.0003025435        0.0116399116       -0.0061066443
O         0.0028960115       -0.0017352796        0.0010974965
O         0.0091557434        0.0036814146       -0.0021183016
O         0.0003004066        0.0019722385       -0.0001026594
O         0.0025658451       -0.0062052781       -0.0036169499
O        -0.0002487275       -0.0066233389       -0.0015240844
O         0.0130341995       -0.0033989852        0.0052914975
O         0.0044042771       -0.0016127955        0.0002602849
O         0.0021568158       -0.0034500323        0.0037892255
O        -0.0038677685       -0.0102191639       -0.0017958054
O         0.0031122715        0.0028872296        0.0033579348
O        -0.0022423907       -0.0035063420        0.0028131058
O         0.0022137593       -0.0027937479       -0.0025768536
O        -0.0009680541       -0.0084409056       -0.0010622344
O        -0.0013363419        0.0038111937        0.0001837190
O         0.0147952947       -0.0028912901       -0.0060473711
O         0.0003977718        0.0027951966        0.0003109707
O        -0.0016061983       -0.0017169917        0.0030194737
O         0.0036273458        0.0006329260        0.0028547482
O        -0.0042267443        0.0036717806        0.0031445146
O        -0.0000034387       -0.0016666436        0.0021727869
O        -0.0030528768        0.0044707587        0.0022573445
O         0.0036967402        0.0005438070       -0.0071900454
O        -0.0061072073        0.0062648028        0.0013885726
O        -0.0013559740        0.0039514374        0.0016052860
O        -0.0037234661       -0.0116855825       -0.0085193327
O         0.0150755257        0.0028868322        0.0004068350
O        -0.0008548644        0.0025968998        0.0006869520
O         0.0004849838        0.0029462370       -0.0037749319
O        -0.0000831429        0.0006625147        0.0019222709
O        -0.0072096095       -0.0020314817       -0.0025713775
O         0.0045499044       -0.0000770239        0.0007697275
     192
 i =        3, E =     -5769.5131506464
Ti        -0.0019660596       -0.0010550743        0.0012667493
Ti         0.0054138995       -0.0041435260       -0.0048957997
Ti        -0.0052130257       -0.0037574065       -0.0081899416
Ti         0.0024742272        0.0119167811        0.0033078194
Ti         0.0032453016       -0.0019190053        0.0026686101
Ti        -0.0076774045        0.0052215937       -0.0037607682
Ti        -0.0015474628        0.0017280195       -0.0035683992
Ti        -0.0023471799        0.0023190919        0.0042275749
Ti        -0.0041972923       -0.0016893400       -0.0028084105
Ti        -0.0005219995       -0.0013902427       -0.0055096837
Ti        -0.0052992006        0.0019494700       -0.0008203933
Ti         0.0042670131        0.0023517435       -0.0045889681
Ti         0.0038174729       -0.0036837987       -0.0018191625
Ti         0.0061437409        0.0101819312        0.0072562073
Ti        -0.0048253398        0.0046631415       -0.0012478100
Ti        -0.0042777085        0.0144869041       -0.0054854125
Ti         0.0010233680       -0.0012215903       -0.0035334000
Ti        -0.0050421421        0.0002830725       -0.0003849729
Ti         0.0083247960        0.0021728180       -0.0040673729
Ti         0.0073589763       -0.0078618376       -0.0079968407
Ti        -0.0014541665       -0.0014634074       -0.0089249004
Ti        -0.0073550717       -0.0120806138       -0.0030167533
Ti         0.0025284653       -0.0000442332        0.0075862055
Ti        -0.0080000976        0.0085144397       -0.0023164467
Ti        -0.0033213296        0.0026522178        0.0016886722
Ti        -0.0070027639        0.0002393631        0.0017229964
Ti         0.0032105824        0.0060136062       -0.0001841123
Ti         0.0009496134        0.0062018199        0.0046625300
Ti         0.0033396707        0.0050830090        0.0056599455
Ti         0.0024895096        0.0152819105        0.0014502936
Ti         0.0006223998       -0.0009492090        0.0011132048
Ti        -0.0007864046       -0.0023109264        0.0029784343
Ti         0.0068806540        0.0053127133       -0.0045530682
Ti        -0.0037899792        0.0066894233       -0.0008965831
Ti         0.0030568539       -0.0027939883       -0.0064510909
Ti         0.0146958089       -0.0052974559       -0.0069375340
Ti        -0.0012073132       -0.0002220784        0.0020465102
Ti        -0.0009500530       -0.0005861946        0.0059406344
Ti        -0.0047392250        0.0016956235       -0.0025394738
Ti        -0.0001776569        0.0075877483        0.0008010878
Ti        -0.0062167885       -0.0004742033        0.0043429483
Ti         0.0039756763        0.0022908186        0.0016354300
Ti         0.0047225853        0.0032258227       -0.0055165420
Ti        -0.0034466236        0.0025130234        0.0047301073
Ti         0.0015812804       -0.0049441565       -0.0048141125
Ti        -0.0037527927       -0.0023944146       -0.0029964340
Ti         0.0075238603        0.0003970199       -0.0063266357
Ti         0.0051908919        0.0099586214        0.0001099971
Ti        -0.0040368022        0.0037972840        0.0080112766
Ti        -0.0046754953        0.0024478980        0.0017274887
Ti        -0.0061405459        0.0036742651        0.0046221945
Ti        -0.0030030323       -0.0030471516        0.0009344168
Ti        -0.0006438146        0.0006347706       -0.0033285277
Ti         0.0027398191       -0.0033461606       -0.0033125136
Ti        -0.0020449463       -0.0029966435        0.0028186753
Ti         0.0039842418        0.0046157475       -0.0009393235
Ti        -0.0030781441        0.0025614006       -0.0004533486
Ti         0.0060071559       -0.0105727634        0.0013134653
Ti         0.0014788786        0.0027083665        0.0018295072
Ti        -0.0032422323       -0.0021863824        0.0016239445
Ti        -0.0044121524       -0.0011341776        0.0053488370
Ti        -0.0045333067       -0.0055183189        0.0039721898
Ti         0.0024510678        0.0010894123        0.0030447848
Ti        -0.0046554837        0.0079213901        0.0014651381
O        -0.0013987349        0.0035757184        0.0035237081
O         0.0011715473       -0.0025019330        0.0043355939
O        -0.0067123744       -0.0033742833        0.0051159805
O         0.0011875535       -0.0003664186        0.0017825257
O         0.0010611508        0.0012275151       -0.0036317965
O         0.0033861429       -0.0044478562        0.0055509854
O         0.0053297802       -0.0034601606        0.0033661916
O         0.0038378857        0.0019757696       -0.0018200484
O         0.0019046064       -0.0011293978       -0.0011658074
O        -0.0048418571       -0.0022526887       -0.0004717216
O        -0.0010195234        0.0004684710        0.0023479137
O         0.0013028324       -0.0019450266       -0.0009492774
O        -0.0047651605        0.0035291110        0.0027398351
O        -0.0026861711        0.0013288543       -0.0024095701
O         0.0058958552       -0.0042940294        0.0019707321
O         0.0020098201       -0.0013442149        0.0038958111
O         0.0006270521        0.0019881403       -0.0021934733
O         0.0032668796       -0.0006948416       -0.0027826200
O        -0.0031894059        0.0006068378        0.0027024436
O         0.0046751740       -0.0001923007        0.0069632136
O        -0.0024315297       -0.0015549856        0.0028262515
O         0.0032694115       -0.0032367121        0.0034128704