     192
 i =        1, E =     -5769.3463880928
Ti        -0.0657103026        0.0771556230        0.0654658723
Ti         1.8696650696        1.9219495384        4.9050015698
Ti         0.0279173298        2.0381270671        2.5329035135
Ti         1.8658497782       -0.0279761105        7.1747455714
Ti        -0.0224853924        3.8284297222       -0.0538848163
Ti         1.9284803821       13.1897576659        4.8381962829
Ti        11.2906215562        1.9896611197        2.4453678118
Ti         5.6196477658       -0.0903937105        7.2213702065
Ti         1.8964777058        3.8241235645        7.2322000737
Ti         0.0290350628       13.3335133847        2.4657236050
Ti         5.6699219979        1.8307340188        4.8238818544
Ti        11.3082031998        0.1043057381       -0.0538014476
Ti         3.6891070985        0.0892577060        0.0424107010
Ti        13.1229553158        1.7829294513        4.7128482037
Ti        13.2493241311       -0.0529837107        7.1488606949
Ti         3.7546353713        1.8132584344        2.5290985814
Ti         1.9678062126        5.6316856640        4.8468763595
Ti         0.0059292193       11.5457875735        0.0157009994
Ti        -0.0155862370        5.7367143573        2.4878045777
Ti         1.8915215105       11.3227939788        7.3340670196
Ti         0.0930329521        7.5430972493        0.0609075207
Ti         2.0242925924        9.5077288152        4.9122665159
Ti         7.5116560600        1.9655258217        2.3542953029
Ti         9.4466557293       -0.1342804858        7.2189996120
Ti         1.9303513408        7.5756422193        7.1703280808
Ti         0.1265946562        9.5627548033        2.4623491854
Ti         9.3316836960        1.8182927301        4.7580348494
Ti         7.4659373308       -0.0600798734       -0.0798254442
Ti         3.7247756334        3.7876314500       -0.0106150349
Ti        13.2327436930       13.1419996270        4.7445572102
Ti        11.3769767152        5.7305186271        2.3881631674
Ti         5.6967744743       11.3204732188        7.1552917477
Ti        13.1954039699        3.6850178416        7.2256610124
Ti         3.7718291819       13.1753101407        2.4393499955
Ti         5.6859372048        5.7146861146        4.8399429061
Ti        11.2292340021       11.4062060202        0.0996565386
Ti        11.2710025547       13.3229766100        2.3589329418
Ti         5.6560760388        3.7407923335        7.1291071562
Ti         3.8884020470       11.4307448051        0.0483953551
Ti        13.2939020471        5.5871698362        4.9094511104
Ti         5.7867341477       13.2060749136        4.8134051879
Ti        11.2711807739        3.7748734584       -0.0677131694
Ti        13.0917807470       11.3870262717        7.2637988505
Ti         3.7751165945        5.6173203961        2.3971414133
Ti         3.7997274174        7.5378448341        0.0403024109
Ti        13.2969591935        9.4270497368        4.8458800257
Ti         7.5305263866        5.6881646601        2.3784468600
Ti         9.4467529741       11.1467947528        7.1717144140
Ti        13.3021245172        7.5666160592        7.2254880277
Ti         3.8843085354        9.4496604088        2.3485755647
Ti         9.5190393353        5.5638418589        4.7107638960
Ti         7.5311018405       11.3422465394        0.0736795351
Ti        11.3937942542        9.4380221369        2.4100621963
Ti         5.6702380575        7.6053412647        7.2000894730
Ti         5.7875864915        9.4163536507        4.7405373239
Ti        11.3101099471        7.5880143835        0.0069091762
Ti         9.4274621125        3.6572856725        7.1608378725
Ti         7.5459509515       13.2890517530        2.3922728770
Ti         7.4591791033        3.7899145151       -0.0511682804
Ti         9.5255829721       13.2419156257        4.7809476975
Ti         7.5836569538        7.5366198627       -0.0477111473
Ti         9.5274436600        9.3749477658        4.7596669817
Ti         7.6473260376        9.4185816894        2.3313838079
Ti         9.5150326267        7.3823738007        7.1408560331
O         0.0526956211        0.0923218210        2.0965480066
O         1.6621913179        1.9418111099        6.7397448077
O        -0.0678590173        1.9995169898        4.4168313799
O         1.8033106715        0.1513928012        9.2443766714
O         1.8054136718       -0.0169325444        5.2562171469
O        -0.1480448710        1.9957542803        0.5060119945
O         1.8554124970        2.1833730865        2.8297581320
O        -0.0764288208       -0.0427422422        7.6168159597
O        -0.0231057920        3.9198702135        2.0822246089
O         2.0050673651       13.2751063309        6.8206987268
O        11.2897970488        1.8201630054        4.3051779883
O         5.6379962782       -0.0357739999        9.2708871016
O         2.1189096581        3.7604373160        5.1821764496
O         0.0568894682       13.3589855069        0.4393265707
O         5.6385717312        1.8154590626        2.8318223916
O        11.2674825632        0.0608714845        7.5667760366
O         3.7206669801        0.1243914272        7.6927266079
O        13.1878841408        1.8550195519        2.8374557891
O        13.1746629772       -0.1097485181        9.2074988080
O         3.7077004410        1.6539350564        4.3757462365
O         1.9285619323        5.6258721866        6.7318001507
O         0.0698038477       11.4395596345        1.9365460591
O         0.0737424415        5.7387743751        0.4621790247
O         1.9418337650       11.3167792290        5.2202935270
O         0.1142708493        7.7114510881        1.9606660974
O         2.1734242091        9.4581610487        6.7762926174
O         7.4525664709        1.8558170868        4.3487963761
O         9.4155114473        0.0506691090        9.2124904670
O         1.8212387374        7.5639377191        5.2781530021
O         0.1133177111        9.5679542134        0.2851132848
O         9.3786197116        2.0343181338        2.8377686488
O         7.4913605346       -0.1656678273        7.7135120520
O         3.7459506315        0.0629858094        2.0331471657
O        13.2076680479        1.8436538694        6.7832709800
O         0.0072737833        5.6114020389        4.4893402710
O         1.9427962559       11.3708068741        9.2539170226
O        13.1665674890       -0.0218129712        5.1321046554
O         3.7037337406        1.9518678810        0.4447282949
O         1.9406399411        5.8022853828        2.9193889702
O         0.0849412480       11.4107659187        7.5619767625
O        11.3542855528        1.9901252955        0.2816452216
O         5.8151210282       -0.0883320187        5.2766746200
O         5.5566219368        1.8380521892        6.7883827919
O        11.2672760379        0.1267552723        1.8928586689
O         1.9091370960        3.8293243310        9.1957757237
O        -0.0320595924       13.1522064722        4.4531399678
O         0.0239743651        3.8076292324        7.6828902481
O         1.8959433833       13.2408155954        2.8801409304
O         3.9646181748        3.8365003128        2.0647839737
O        13.1013370023       13.2710082709        6.7161643468
O        11.3744948980        5.6509384579        4.3889755171
O         5.6922136801       11.4699520745        9.2146978449
O        13.1691694930        3.7972022343        5.2074889928
O         3.6362319528       13.3080329485        0.5122208584
O         5.7307919957        5.9071980035        2.7337111530
O        11.3032965022       11.3377777227        7.6728753401
O        11.2414141797       13.2797283437        0.4226679488
O         5.4751754570        3.7212253610        5.1850404424
O         3.7943240180       11.3552397765        7.6788985874
O        13.2766712548        5.9175179136        2.8725411375
O         5.5228935596       13.1939616361        6.7812576580
O        11.5526599856        3.8491687701        1.9109185347
O        13.2157120619       11.4032229639        9.2061236311
O         3.8672434573        5.7104220695        4.4100696915
O         5.7563164021        5.6416673861        6.7314509557
O        11.1262114488       11.4506043881        1.9909422323
O        13.2070161676        3.9032301594        9.1317986590
O         3.7932842297       13.2007020188        4.3894421539
O        11.3453170195        5.7375861892        0.4001003261
O         5.7779580650       11.3017777588        5.2316009597
O         3.7426460512        3.7269937652        7.6451136858
O        13.1975276408       13.2163486775        2.7233345238
O        13.0606000632       11.4201248872        5.1530058366
O         3.7250235787        5.6687020300        0.4379105772
O         5.6973886661       13.1597716018        2.8716120362
O        11.3057475254        3.5684005865        7.5603280998
O         3.9720114029       11.4073938909        1.9673443049
O        13.2044647602        5.6493119191        6.9300440967
O        11.2969310325       13.3537429402        4.3165710485
O         5.6557884907        3.8130691140        9.1403177159
O         3.7999088723        7.6397204755        1.9202529397
O        13.3194464221        9.5880727260        6.7561253977
O         7.5741329176        5.5362727273        4.3130309182
O         9.4215982678       11.3244825651        9.2318959198
O        13.2646860946        7.5830491387        5.4124602704
O         3.8248092659        9.5190207404        0.3572595353
O         9.5574589744        5.5753754497        2.7917373637
O         7.5416618884       11.3565927784        7.5827730159
O        11.3522328384        9.5095651310        0.3964694822
O         5.7212592341        7.5647327626        5.1674219147
O         5.5320074797        9.4210274462        6.7474868449
O        11.2250320312        7.5957043586        2.0028754922
O         9.4407194555        3.9423620814        9.1467689505
O         7.5995834907       13.0539379820        4.4621019878
O         7.5068169248        3.6374643591        7.5576708958
O         9.4234730478       13.4837954713        2.8697469879
O         7.4307359349       -0.0422548972        2.0409108654
O         9.2057697751        1.8067307629        6.7231622944
O         0.0775905774        9.3713295962        4.4244066501
O         1.9432749394        7.5627447357        9.1948122184
O         9.3003523250       -0.0367109043        5.1881173742
O         7.6568291900        1.8877700121        0.4361165316
O         1.9641046552        9.7185775507        2.7714153570
O         0.0367932688        7.5533084161        7.6339366509
O         7.5265670421        3.7972750574        1.9510697997
O         9.5080117748       13.1942439320        6.7316412812
O        11.4431200936        9.2416540659        4.3699070400
O         5.6599925020        7.7076674130        9.1265709113
O         9.4842498459        3.6881552461        5.1875730849
O         7.5460294220       13.2161037962        0.4056064331
O         5.7427134887        9.3987978763        2.7108443411
O        11.3069098027        7.6294889062        7.6025493639
O         3.7894853507        7.3819654422        7.6001099141
O        13.3191047128        9.6042368816        2.8075648127
O        13.2605708783        7.6562047640        9.3611385552
O         3.8521435285        9.4384743045        4.3102263941
O         9.6214803424        5.5440294017        6.7642227305
O         7.6332691355       11.3243389378        1.9536004445
O         7.3324099553        5.6920366467        0.3501324739
O         9.5416767654       11.2258292520        5.1881298167
O         7.8674133015        7.5997772617        1.9143890627
O         9.4487180247        9.4225141644        6.7994204664
O         7.5663883182        9.3858453403        4.3271509765
O         9.4583992157        7.4279622959        9.2196739124
O         9.3514719654        7.4746668046        5.2524987827
O         7.5220710748        9.4728374534        0.3704547023
O         9.5656116376        9.5108045928        2.8803514190
O         7.6054283075        7.5410101212        7.6028042061
     192
 i =        2, E =     -5769.4733984714
Ti        -0.0594251991        0.0893785223        0.0286179382
Ti         1.8456009197        1.9071849489        4.8695417417
Ti         0.0204978481        1.9861815372        2.4841197124
Ti         1.8375403944       -0.0398684469        7.2054990410
Ti        -0.0416105767        3.8571940519       -0.0261024901
Ti         1.9330776992       13.2033306029        4.8336666550
Ti        11.3081235762        1.9472244588        2.4234814942
Ti         5.6172431820       -0.0785501387        7.2058162160
Ti         1.8941324339        3.8176285600        7.2439587813
Ti         0.0046187758       13.3096026027        2.4523496016
Ti         5.6749339605        1.8446637090        4.8037572170
Ti        11.2776202707        0.0704644805       -0.0435572882
Ti         3.6765921791        0.0725583854        0.0363581783
Ti        13.1649888044        1.8273697090        4.7590289735
Ti        13.2459052934       -0.0449713184        7.1761166933
Ti         3.7690036078        1.8385079632        2.4874091614
Ti         1.9556810328        5.6421953532        4.8366473604
Ti         0.0268043599       11.4702198367        0.0097832607
Ti        -0.0142368320        5.7252572269        2.4652233284
Ti         1.8694381885       11.3792274956        7.2646904740
Ti         0.0472780045        7.5683268857        0.0502156221
Ti         2.0024889226        9.5057814164        4.8553242587
Ti         7.5136528825        1.9502344840        2.3387758105
Ti         9.4532495322       -0.0997746806        7.2175409344
Ti         1.9250085097        7.5782970977        7.1916164535
Ti         0.0843710901        9.5401608474        2.4546306656
Ti         9.3757717305        1.8419282177        4.7815233068
Ti         7.4705411089       -0.0195308955       -0.0470619093
Ti         3.7437396468        3.7688793495       -0.0010761206
Ti        13.2143138776       13.1302800249        4.7803701784
Ti        11.3641041874        5.7067342869        2.3963022900
Ti         5.6853296333       11.3152725847        7.1816476541
Ti        13.1778346179        3.7277534824        7.2427955374
Ti         3.7709298040       13.2157574919        2.4526016781
Ti         5.7041780333        5.6834036541        4.8274091849
Ti        11.2459540089       11.3892269546        0.0642252891
Ti        11.3055853128       13.3180183004        2.3495263976
Ti         5.6537801972        3.7299586536        7.1453139401
Ti         3.8791696878       11.4024952338        0.0331061818
Ti        13.2770693894        5.6232658137        4.8556662122
Ti         5.7407656810       13.1952064749        4.8084441756
Ti        11.2724327106        3.7870451676       -0.0449625353
Ti        13.1405604496       11.3605621740        7.2576348390
Ti         3.7939195811        5.6877214594        2.3878438473
Ti         3.7924479433        7.5570935232        0.0318365261
Ti        13.2659539985        9.4492386337        4.8347966880
Ti         7.5246304656        5.6869452535        2.4095566703
Ti         9.4223262105       11.2084421745        7.1721080818
Ti        13.2850214132        7.5535426726        7.1884515704
Ti         3.8585602363        9.4588695925        2.3648984936
Ti         9.5051952214        5.5821797424        4.7363313286
Ti         7.5827655444       11.3612633875        0.0349934181
Ti        11.3922325082        9.4607978878        2.4359208655
Ti         5.6623719369        7.5641494631        7.2140213570
Ti         5.7560893275        9.4213396562        4.7680116679
Ti        11.3220838192        7.5868067246        0.0169397978
Ti         9.4376555135        3.6852494048        7.1866622549
Ti         7.5347027635       13.2983027131        2.3868625366
Ti         7.4834072597        3.7878274338       -0.0575664280
Ti         9.4756914056       13.2423680910        4.7843212393
Ti         7.6020917526        7.5387982573       -0.0629355298
Ti         9.5042239238        9.4129914971        4.7838820038
Ti         7.6221175094        9.4189932496        2.3402736439
Ti         9.4995260150        7.4232794246        7.1630843817
O         0.0469666953        0.0571119817        1.9943330557
O         1.7776868310        1.9218367734        6.7678671210
O        -0.0234957700        1.9834338919        4.3944842444
O         1.8039959491        0.1111766933        9.2006559207
O         1.8141132859       -0.0105243594        5.2736917326
O        -0.1068304816        2.0105284041        0.4625471275
O         1.8631098219        2.1016747821        2.8031974909
O        -0.0498315909       -0.0309429615        7.6587288842
O        -0.0463812960        3.8844845907        2.0743552589
O         1.9936586379       13.2487343446        6.8147779655
O        11.2909439152        1.8447379780        4.3310317218
O         5.6013935796       -0.0055690780        9.2396142245
O         2.0663561839        3.7763235270        5.2004272442
O         0.0359205989       13.3358098787        0.4415316949
O         5.6301917945        1.8878181286        2.8175922322
O        11.3062464243        0.0590779744        7.5831802132
O         3.7089536623        0.0849040488        7.6772132913
O        13.1936010459        1.8819703081        2.8456651097
O        13.1818430413       -0.0150185179        9.1751626995
O         3.7213904628        1.7195527112        4.3811856252
O         1.9164510499        5.6565935405        6.7795429709
O         0.0080910234       11.4204346386        1.9338243892
O         0.0254147994        5.7427509656        0.4629147550
O         1.9207710354       11.3447471099        5.2461146032
O         0.1367031896        7.6805803541        1.9723837944
O         2.0202455844        9.4764806266        6.7858656496
O         7.5153582150        1.9273912869        4.3710897558
O         9.4044535340        0.0364135574        9.1763799592
O         1.8999049797        7.5592401279        5.2657611877
O         0.0960839018        9.5095506658        0.2965201722
O         9.3962897772        1.9558287237        2.8096065949
O         7.4957056939       -0.1365296664        7.6940751714
O         3.7201124177        0.0440618027        2.0280581248
O        13.2633323238        1.8696346470        6.7845766010
O         0.0171589401        5.6139042782        4.4617621514
O         1.9193654581       11.3737681764        9.2204526732
O        13.2443712321        0.0101221075        5.1884709060
O         3.7139569223        1.9334620700        0.4677540117
O         1.9397106184        5.7260521353        2.8750683825
O         0.0125771521       11.4103096159        7.5793232673
O        11.3349787640        1.9635751123        0.3253248878
O         5.7717948920       -0.0474359668        5.2611150291
O         5.6522404471        1.8239439490        6.7831631369
O        11.3050303614        0.1224835541        1.9113184663
O         1.8875560497        3.8086791922        9.2339967236
O        -0.0208749417       13.2242230465        4.4122117287
O        -0.0069572558        3.7894181015        7.6768112423
O         1.8804801643       13.2479006301        2.8724123250
O         3.8688702002        3.8575265686        2.0753590269
O        13.1546604775       13.2353062892        6.7669956435
O        11.3604948296        5.6562442592        4.4085500007
O         5.7090522576       11.4427293421        9.1933853380
O        13.1554867796        3.8106525359        5.2429185887
O         3.6454543997       13.2904389361        0.4849237534
O         5.7148520538        5.8435754511        2.7744562895
O        11.3213976638       11.3342435566        7.6204537215
O        11.2559464741       13.2737931790        0.3919283057
O         5.5832022539        3.7295290009        5.1817874487
O         3.7913176939       11.3702250635        7.6621735736
O        13.2790038275        5.8937949220        2.8792968748
O         5.5308420445       13.1999388481        6.8152827053
O        11.4661832701        3.8022207562        1.9391635683
O        13.2333766817       11.4715934752        9.1793782703
O         3.8532788954        5.7261999525        4.3777276303
O         5.7540555665        5.6256734129        6.7327146631
O        11.2354863775       11.4046344365        2.0044833889
O        13.2161561627        3.8571719675        9.1759037205
O         3.7930298972       13.2125516086        4.4291403795
O        11.4064861870        5.7351051100        0.3876091520
O         5.7386552207       11.2855860273        5.2463347661
O         3.7554885372        3.7405945744        7.6595939970
O        13.2222822677       13.2831022955        2.8003696520
O        13.1120213210       11.3295432517        5.1845271996
O         3.7748471765        5.6647774281        0.4303661668
O         5.6770541523       13.2429510679        2.8607610283
O        11.3055954021        3.5803903807        7.5752209166
O         3.9193757379       11.3998383798        1.9859960437
O        13.2137217858        5.6600905909        6.8372526217
O        11.2981890206       13.3024926106        4.3459115293
O         5.6508804262        3.7761586770        9.1586868415
O         3.7767224858        7.6151360539        1.9474511748
O        13.3180934479        9.5225859600        6.7868936787
O         7.5790808143        5.5400830701        4.3256137631
O         9.4400997636       11.3052043968        9.1621770851
O        13.3131555608        7.5777424818        5.3265953066
O         3.7975074343        9.5003953053        0.3690509430
O         9.4933170730        5.5833835067        2.8035608153
O         7.5198155307       11.3021234569        7.5718932869
O        11.3562236349        9.4789402906        0.4767261781
O         5.7531040845        7.5431777463        5.1786099235
O         5.5956037001        9.4079487790        6.7679059060
O        11.3050881982        7.6192926780        1.9932426046
O         9.4181485220        3.9064620974        9.1632473931
O         7.5615855303       13.1010403446        4.4130701549
O         7.5273604708        3.7104745039        7.5743314388
O         9.4215282117       13.3796137037        2.8211632034
O         7.4719896329        0.0016863599        2.0368527326
O         9.2971900548        1.8234091910        6.7514109771
O         0.0479590450        9.4571645858        4.3930614417
O         1.9216580753        7.6478986377        9.2074041997
O         9.3381254179       -0.0210857511        5.2211824026
O         7.5662240271        1.9025247006        0.4003270498
O         1.9326517920        9.6411216047        2.7563874306
O         0.0321847297        7.5611688539        7.6395062263
O         7.4563892594        3.8063416189        1.9261362616
O         9.5051309609       13.1964959480        6.7503025727
O        11.3951021633        9.2752402293        4.3941541805
O         5.6691006722        7.6604564740        9.1580205341
O         9.4408814858        3.7197378224        5.2217488799
O         7.5415659968       13.2567079724        0.4435874239
O         5.7402018946        9.3971997309        2.7822998277
O        11.3413840823        7.6238447832        7.6620547961
O         3.7789081647        7.4268015844        7.6275983767
O        13.2820789722        9.5886823317        2.8050208659
O        13.2541575344        7.6516765908        9.2258055258
O         3.8400651225        9.3975095036        4.3259446713
O         9.5192080095        5.5841586326        6.7640468728
O         7.6627415949       11.3334176196        1.9419797382
O         7.4226006387        5.6858911744        0.4040915773
O         9.5637944543       11.2665788707        5.2043135861
O         7.7685861743        7.5493526387        1.9298911039
O         9.4868965118        9.4072310667        6.8437002172
O         7.5792981916        9.3971196569        4.3486532218
O         9.4643825946        7.5042811676        9.1720680460
O         9.4185440248        7.4925155181        5.2423966174
O         7.5391913997        9.4585020525        0.3733270571
O         9.5147889374        9.4917603888        2.8699760741
O         7.5745469222        7.5209858888        7.6043821999
     192
 i =        3, E =     -5769.5131506464
Ti        -0.0511491150        0.0813020944        0.0244955511
Ti         1.8533508401        1.9005089744        4.8589580984
Ti         0.0082979117        1.9815405637        2.4599207123
Ti         1.8367142794       -0.0191333149        7.2159516392
Ti        -0.0492084185        3.8474092589       -0.0144733958
Ti         1.9237192514       13.2177134157        4.8292359459
Ti        11.3271111716        1.9290613574        2.4250093267
Ti         5.6178082566       -0.0629961790        7.2015454560
Ti         1.8964886402        3.8089252531        7.2402223030
Ti         0.0024019383       13.3064943218        2.4326440182
Ti         5.6784858673        1.8505061867        4.8025761157
Ti        11.2737055632        0.0554113369       -0.0421799307
Ti         3.6885627719        0.0651621114        0.0327809178
Ti        13.1860364503        1.8520826285        4.7944104521
Ti        13.2270306382       -0.0287203218        7.1897356359
Ti         3.7758290439        1.8575352191        2.4661666408
Ti         1.9479083670        5.6485323413        4.8255271537
Ti         0.0111150947       11.4418712047        0.0052054669
Ti        -0.0067986717        5.7202689793        2.4589381826
Ti         1.8735255150       11.3859276859        7.2221140568
Ti         0.0289053115        7.5732776251        0.0338552304
Ti         1.9822344846        9.5000556413        4.8348522857
Ti         7.5267691193        1.9383651287        2.3409563301
Ti         9.4341374436       -0.0782247319        7.2072794914
Ti         1.9164561197        7.5714064314        7.1980244799
Ti         0.0718226496        9.5194139044        2.4596795134
Ti         9.3924762401        1.8572560489        4.7805558935
Ti         7.4792870750       -0.0060480701       -0.0416804097
Ti         3.7511882614        3.7784593513        0.0063918738
Ti        13.2195404434       13.1600845686        4.7774071666
Ti        11.3668980514        5.6945917815        2.4054839980
Ti         5.6911475300       11.3098657060        7.2003485664
Ti        13.1902991179        3.7588018421        7.2283754635
Ti         3.7698471257       13.2435044516        2.4281066510
Ti         5.7065656121        5.6668064001        4.8211118460
Ti        11.2695994839       11.3907249100        0.0349617148
Ti        11.3183130862       13.3081987466        2.3690043266
Ti         5.6503126008        3.7403329783        7.1561116102
Ti         3.8524459377       11.3903808071        0.0314488598
Ti        13.2726008128        5.6312996294        4.8334933512
Ti         5.7204109695       13.1891138235        4.8001554487
Ti        11.2784574585        3.7824401672       -0.0221312263
Ti        13.1783174688       11.3535613403        7.2619784169
Ti         3.7917357846        5.6824990234        2.3970339107
Ti         3.7884960089        7.5668779678        0.0064013443
Ti        13.2575075614        9.4569152051        4.8370349451
Ti         7.5275766401        5.6918022914        2.4056239391
Ti         9.4365074767       11.2466289786        7.1637587603
Ti        13.2782647117        7.5520515120        7.1869363924
Ti         3.8433202564        9.4588450090        2.3842103784
Ti         9.4924088115        5.5994774191        4.7574951120
Ti         7.5891690626       11.3574469117        0.0217253449
Ti        11.3955088580        9.4630266770        2.4248868857
Ti         5.6729643725        7.5495347960        7.2196275298
Ti         5.7425378373        9.4195661851        4.7832105650
Ti        11.3367378352        7.5886808681        0.0133426830
Ti         9.4350049932        3.6997512638        7.1846954333
Ti         7.5291139108       13.3017785326        2.3796432540
Ti         7.4939404826        3.7852432457       -0.0393428577
Ti         9.4660858577       13.2349183922        4.7859597473
Ti         7.6025409175        7.5413811523       -0.0542284216
Ti         9.4976435993        9.4261054170        4.7854880036
Ti         7.6116799732        9.4337152972        2.3586159534
Ti         9.4986529294        7.4579296442        7.1755293811
O         0.0387825774        0.0678675268        1.9877368455
O         1.8103065966        1.9201560023        6.7770559514
O        -0.0024195860        1.9631449551        4.3886994977
O         1.8192723752        0.1034741375        9.2018100055
O         1.8118225664       -0.0040177764        5.2678311837
O        -0.0917671952        1.9925525044        0.4523454737
O         1.8599215982        2.0372457267        2.8076958706
O        -0.0425698982       -0.0204724356        7.6583407832
O        -0.0727927303        3.8784439150        2.0537751428
O         1.9719982986       13.2462387295        6.8154343865
O        11.2919922160        1.8543237100        4.3593592763
O         5.5943308169        0.0088139614        9.2223532941
O         2.0375887874        3.7865912993        5.2164797874
O         0.0221860708       13.3170133435        0.4298091809
O         5.6392538344        1.8998702728        2.8187880382
O        11.3001612121        0.0485679188        7.5958113644
O         3.7139918614        0.0502710535        7.6735630077
O        13.2031342743        1.8851689589        2.8605531168
O        13.1887639292        0.0387780316        9.1611093091
O         3.7439214519        1.7579122131        4.3864507673
O         1.9015464103        5.6616403187        6.7949807345
O        -0.0231044251       11.4031292027        1.9324276019