 DBCSR| CPU Multiplication driver                                           XSMM (U)
 DBCSR| Multrec recursion limit                                              512 (U)
 DBCSR| Multiplication stack size                                           1000 (D)
 DBCSR| Maximum elements for images                                    UNLIMITED (U)
 DBCSR| Multiplicative factor virtual images                                   1 (U)
 DBCSR| Use multiplication densification                                       T (D)
 DBCSR| Multiplication size stacks                                             3 (U)
 DBCSR| Use memory pool for CPU allocation                                     F (U)
 DBCSR| Number of 3D layers                                               SINGLE (U)
 DBCSR| Use MPI memory allocation                                              F (U)
 DBCSR| Use RMA algorithm                                                      F (U)
 DBCSR| Use Communication thread                                               T (U)
 DBCSR| Communication thread load                                             87 (D)
 DBCSR| MPI: My process id                                                     0
 DBCSR| MPI: Number of processes                                             128
 DBCSR| OMP: Current number of threads                                         1
 DBCSR| OMP: Max number of threads                                             1
 DBCSR| Split modifier for TAS multiplication algorithm                  1.0E+00 (U)


  **** **** ******  **  PROGRAM STARTED AT               2025-06-19 09:29:12.848
 ***** ** ***  *** **   PROGRAM STARTED ON                             nid006738
 **    ****   ******    PROGRAM STARTED BY                                cahart
 ***** **    ** ** **   PROGRAM PROCESS ID                                 23351
  **** **  *******  **  PROGRAM STARTED IN /mnt/lustre/a2fs-work2/work/e05/e05/c
                                           ahart/postdoc2/work/group/tio2/anatas
                                           e/cell-441/geo-opt/mp-390/hole/from-n
                                           eutral/pbe-u-o/u-2.2

 CP2K| version string:                                       CP2K version 2024.3
 CP2K| source code revision number:                                  git:6712648
 CP2K| cp2kflags: omp libint fftw3 libxc libgrpp elpa parallel scalapack cosma x
 CP2K|            smm plumed2 spglib mkl sirius libvori libbqb libvdwxc hdf5
 CP2K| is freely available from                            https://www.cp2k.org/
 CP2K| Program compiled at                       Thu 12 Sep 2024 10:20:47 AM BST
 CP2K| Program compiled on                                                  ln04
 CP2K| Program compiled for                                                local
 CP2K| Data directory path    /mnt/lustre/a2fs-work1/work/y07/shared/apps/core/c
 CP2K| Input file name                                                 input.inp

 GLOBAL| Force Environment number                                              1
 GLOBAL| Basis set file name                                        BASIS_MOLOPT
 GLOBAL| Potential file name                                      GTH_POTENTIALS
 GLOBAL| MM Potential file name                                     MM_POTENTIAL
 GLOBAL| Coordinate file name                                         system.xyz
 GLOBAL| Method name                                                        CP2K
 GLOBAL| Project name                                                       tio2
 GLOBAL| Run type                                                        GEO_OPT
 GLOBAL| FFT library                                                       FFTW3
 GLOBAL| Diagonalization library                                            ELPA
 GLOBAL| DGEMM library                                                      BLAS
 GLOBAL| Minimum number of eigenvectors for ELPA usage                        16
 GLOBAL| Orthonormality check for eigenvectors                          DISABLED
 GLOBAL| Matrix multiplication library                                     COSMA
 GLOBAL| All-to-all communication in single precision                          F
 GLOBAL| FFTs using library dependent lengths                                  F
 GLOBAL| Grid backend                                                       AUTO
 GLOBAL| Global print level                                               MEDIUM
 GLOBAL| MPI I/O enabled                                                       T
 GLOBAL| Total number of message passing processes                           128
 GLOBAL| Number of threads for this process                                    1
 GLOBAL| This output is from process                                           0
 GLOBAL| Stack size for threads created by OpenMP (OMP_STACKSIZE)        default
 GLOBAL| CPU model name                          AMD EPYC 7742 64-Core Processor
 GLOBAL| CPUID                                                              1002

 MEMORY| system memory details [Kb]
 MEMORY|                        rank 0           min           max       average
 MEMORY| MemTotal            263341712     263341712     263341712     263341712
 MEMORY| MemFree             234568812     234567044     234568812     234568010
 MEMORY| Buffers                     0             0             0             0
 MEMORY| Cached                1874856       1874856       1874856       1874856
 MEMORY| Slab                  6035344       6035344       6035344       6035344
 MEMORY| SReclaimable           905732        905732        905732        905732
 MEMORY| MemLikelyFree       237349400     237347632     237349400     237348598


 *** Fundamental physical constants (SI units) ***

 *** Literature: B. J. Mohr and B. N. Taylor,
 ***             CODATA recommended values of the fundamental physical
 ***             constants: 2006, Web Version 5.1
 ***             http://physics.nist.gov/constants

 Speed of light in vacuum [m/s]                             2.99792458000000E+08
 Magnetic constant or permeability of vacuum [N/A**2]       1.25663706143592E-06
 Electric constant or permittivity of vacuum [F/m]          8.85418781762039E-12
 Planck constant (h) [J*s]                                  6.62606896000000E-34
 Planck constant (h-bar) [J*s]                              1.05457162825177E-34
 Elementary charge [C]                                      1.60217648700000E-19
 Electron mass [kg]                                         9.10938215000000E-31
 Electron g factor [ ]                                     -2.00231930436220E+00
 Proton mass [kg]                                           1.67262163700000E-27
 Fine-structure constant                                    7.29735253760000E-03
 Rydberg constant [1/m]                                     1.09737315685270E+07
 Avogadro constant [1/mol]                                  6.02214179000000E+23
 Boltzmann constant [J/K]                                   1.38065040000000E-23
 Atomic mass unit [kg]                                      1.66053878200000E-27
 Bohr radius [m]                                            5.29177208590000E-11

 *** Conversion factors ***

 [u] -> [a.u.]                                              1.82288848426455E+03
 [Angstrom] -> [Bohr] = [a.u.]                              1.88972613288564E+00
 [a.u.] = [Bohr] -> [Angstrom]                              5.29177208590000E-01
 [a.u.] -> [s]                                              2.41888432650478E-17
 [a.u.] -> [fs]                                             2.41888432650478E-02
 [a.u.] -> [J]                                              4.35974393937059E-18
 [a.u.] -> [N]                                              8.23872205491840E-08
 [a.u.] -> [K]                                              3.15774647902944E+05
 [a.u.] -> [kJ/mol]                                         2.62549961709828E+03
 [a.u.] -> [kcal/mol]                                       6.27509468713739E+02
 [a.u.] -> [Pa]                                             2.94210107994716E+13
 [a.u.] -> [bar]                                            2.94210107994716E+08
 [a.u.] -> [atm]                                            2.90362800883016E+08
 [a.u.] -> [eV]                                             2.72113838565563E+01
 [a.u.] -> [Hz]                                             6.57968392072181E+15
 [a.u.] -> [1/cm] (wave numbers)                            2.19474631370540E+05
 [a.u./Bohr**2] -> [1/cm]                                   5.14048714338585E+03
 

 CELL_TOP| Volume [angstrom^3]:                                      2198.132028
 CELL_TOP| Vector a [angstrom    15.120     0.000     0.000   |a| =    15.120000
 CELL_TOP| Vector b [angstrom     0.000    15.120     0.000   |b| =    15.120000
 CELL_TOP| Vector c [angstrom     0.000     0.000     9.615   |c| =     9.615020
 CELL_TOP| Angle (b,c), alpha [degree]:                                90.000000
 CELL_TOP| Angle (a,c), beta  [degree]:                                90.000000
 CELL_TOP| Angle (a,b), gamma [degree]:                                90.000000
 CELL_TOP| Requested initial symmetry:                       MONOCLINIC_GAMMA_AB
 CELL_TOP| Numerically orthorhombic:                                         YES
 CELL_TOP| Periodicity                                                       XYZ

 *** WARNING in atoms_input.F:123 :: Overwriting coordinates. Active    ***
 *** coordinates read from &COORD section. Active coordinates READ from ***
 *** &COORD section                                                     ***


 GENERATE|  Preliminary Number of Bonds generated:                             0
 GENERATE|  Achieved consistency in connectivity generation.

 CELL| Volume [angstrom^3]:                                          2198.132028
 CELL| Vector a [angstrom]:      15.120     0.000     0.000   |a| =    15.120000
 CELL| Vector b [angstrom]:       0.000    15.120     0.000   |b| =    15.120000
 CELL| Vector c [angstrom]:       0.000     0.000     9.615   |c| =     9.615020
 CELL| Angle (b,c), alpha [degree]:                                    90.000000
 CELL| Angle (a,c), beta  [degree]:                                    90.000000
 CELL| Angle (a,b), gamma [degree]:                                    90.000000
 CELL| Requested initial symmetry:                           MONOCLINIC_GAMMA_AB
 CELL| Numerically orthorhombic:                                             YES
 CELL| Periodicity                                                           XYZ

 CELL_REF| Volume [angstrom^3]:                                      2198.132028
 CELL_REF| Vector a [angstrom    15.120     0.000     0.000   |a| =    15.120000
 CELL_REF| Vector b [angstrom     0.000    15.120     0.000   |b| =    15.120000
 CELL_REF| Vector c [angstrom     0.000     0.000     9.615   |c| =     9.615020
 CELL_REF| Angle (b,c), alpha [degree]:                                90.000000
 CELL_REF| Angle (a,c), beta  [degree]:                                90.000000
 CELL_REF| Angle (a,b), gamma [degree]:                                90.000000
 CELL_REF| Requested initial symmetry:                       MONOCLINIC_GAMMA_AB
 CELL_REF| Numerically orthorhombic:                                         YES
 CELL_REF| Periodicity                                                       XYZ

 *******************************************************************************
 *******************************************************************************
 **                                                                           **
 **     #####                         ##              ##                      **
 **    ##   ##            ##          ##              ##                      **
 **   ##     ##                       ##            ######                    **
 **   ##     ##  ##   ##  ##   #####  ##  ##   ####   ##    #####    #####    **
 **   ##     ##  ##   ##  ##  ##      ## ##   ##      ##   ##   ##  ##   ##   **
 **   ##  ## ##  ##   ##  ##  ##      ####     ###    ##   ######   ######    **
 **    ##  ###   ##   ##  ##  ##      ## ##      ##   ##   ##       ##        **
 **     #######   #####   ##   #####  ##  ##  ####    ##    #####   ##        **
 **           ##                                                    ##        **
 **                                                                           **
 **                                                ... make the atoms dance   **
 **                                                                           **
 **            Copyright (C) by CP2K developers group (2000-2024)             **
 **                      J. Chem. Phys. 152, 194103 (2020)                    **
 **                                                                           **
 *******************************************************************************

 DFT| Spin unrestricted (spin-polarized) Kohn-Sham calculation               UKS
 DFT| Multiplicity                                                             2
 DFT| Number of spin states                                                    2
 DFT| Charge                                                                   1
 DFT| Self-interaction correction (SIC)                                       NO
 DFT| Cutoffs: density                                              1.000000E-10
 DFT|          gradient                                             1.000000E-10
 DFT|          tau                                                  1.000000E-10
 DFT|          cutoff_smoothing_range                               0.000000E+00
 DFT| XC density smoothing                                                  NONE
 DFT| XC derivatives                                                          PW

 DFT+U| Method                                                          MULLIKEN
 DFT+U| Check atomic kind information for details

 FUNCTIONAL| PBE:
 FUNCTIONAL| J.P.Perdew, K.Burke, M.Ernzerhof, Phys. Rev. Letter, vol. 77, n 18,
 FUNCTIONAL|  pp. 3865-3868, (1996) {spin polarized}                            


 QS| Method:                                                                 GPW
 QS| Density plane wave grid type                        NON-SPHERICAL FULLSPACE
 QS| Number of grid levels:                                                    4
 QS| Density cutoff [a.u.]:                                                300.0
 QS| Multi grid cutoff [a.u.]: 1) grid level                               300.0
 QS|                           2) grid level                               100.0
 QS|                           3) grid level                                33.3
 QS|                           4) grid level                                11.1
 QS| Grid level progression factor:                                          3.0
 QS| Relative density cutoff [a.u.]:                                        20.0
 QS| Interaction thresholds: eps_pgf_orb:                                1.0E-06
 QS|                         eps_filter_matrix:                          0.0E+00
 QS|                         eps_core_charge:                            1.0E-14
 QS|                         eps_rho_gspace:                             1.0E-12
 QS|                         eps_rho_rspace:                             1.0E-12
 QS|                         eps_gvg_rspace:                             1.0E-06
 QS|                         eps_ppl:                                    1.0E-02
 QS|                         eps_ppnl:                                   1.0E-08


 ATOMIC KIND INFORMATION

  1. Atomic kind: Ti                                    Number of atoms:      64

     Orbital Basis Set                                    DZVP-MOLOPT-SR-GTH-q12

       Number of orbital shell sets:                                           1
       Number of orbital shells:                                               8
       Number of primitive Cartesian functions:                                6
       Number of Cartesian basis functions:                                   31
       Number of spherical basis functions:                                   26
       Norm type:                                                              2

       Normalised Cartesian orbitals:

                        Set   Shell   Orbital            Exponent    Coefficient

                          1       1    2s                7.884570       0.015554
                                                         3.894698       0.963603
                                                         1.513589      -0.631435
                                                         0.596768      -0.343022
                                                         0.222222      -0.006534
                                                         0.077078       0.007652

                          1       2    3s                7.884570      -0.009340
                                                         3.894698       0.212624
                                                         1.513589      -0.258368
                                                         0.596768      -0.226206
                                                         0.222222       0.039438
                                                         0.077078       0.107179

                          1       3    4s                7.884570       0.276563
                                                         3.894698       0.105452
                                                         1.513589       0.085149
                                                         0.596768       0.882541
                                                         0.222222      -0.696223
                                                         0.077078       0.156638

                          1       4    3px               7.884570      -2.034794
                                                         3.894698       0.782008
                                                         1.513589       1.253903
                                                         0.596768       0.347823
                                                         0.222222       0.016778
                                                         0.077078      -0.000433
                          1       4    3py               7.884570      -2.034794
                                                         3.894698       0.782008
                                                         1.513589       1.253903
                                                         0.596768       0.347823
                                                         0.222222       0.016778
                                                         0.077078      -0.000433
                          1       4    3pz               7.884570      -2.034794
                                                         3.894698       0.782008
                                                         1.513589       1.253903
                                                         0.596768       0.347823
                                                         0.222222       0.016778
                                                         0.077078      -0.000433

                          1       5    4px               7.884570       0.376572
                                                         3.894698      -0.182875
                                                         1.513589      -0.474776
                                                         0.596768      -0.081757
                                                         0.222222       0.064432
                                                         0.077078       0.047279
                          1       5    4py               7.884570       0.376572
                                                         3.894698      -0.182875
                                                         1.513589      -0.474776
                                                         0.596768      -0.081757
                                                         0.222222       0.064432
                                                         0.077078       0.047279
                          1       5    4pz               7.884570       0.376572
                                                         3.894698      -0.182875
                                                         1.513589      -0.474776
                                                         0.596768      -0.081757
                                                         0.222222       0.064432
                                                         0.077078       0.047279

                          1       6    4dx2              7.884570       3.047350
                                                         3.894698       3.289529
                                                         1.513589       1.060616
                                                         0.596768       0.249930
                                                         0.222222       0.038806
                                                         0.077078       0.002319
                          1       6    4dxy              7.884570       5.278165
                                                         3.894698       5.697631
                                                         1.513589       1.837041
                                                         0.596768       0.432892
                                                         0.222222       0.067214
                                                         0.077078       0.004017
                          1       6    4dxz              7.884570       5.278165
                                                         3.894698       5.697631
                                                         1.513589       1.837041
                                                         0.596768       0.432892
                                                         0.222222       0.067214
                                                         0.077078       0.004017
                          1       6    4dy2              7.884570       3.047350
                                                         3.894698       3.289529
                                                         1.513589       1.060616
                                                         0.596768       0.249930
                                                         0.222222       0.038806
                                                         0.077078       0.002319
                          1       6    4dyz              7.884570       5.278165
                                                         3.894698       5.697631
                                                         1.513589       1.837041
                                                         0.596768       0.432892
                                                         0.222222       0.067214
                                                         0.077078       0.004017
                          1       6    4dz2              7.884570       3.047350
                                                         3.894698       3.289529
                                                         1.513589       1.060616
                                                         0.596768       0.249930
                                                         0.222222       0.038806
                                                         0.077078       0.002319

                          1       7    5dx2              7.884570      -2.119015
                                                         3.894698      -1.237751
                                                         1.513589      -0.746777
                                                         0.596768      -0.071514
                                                         0.222222       0.004086
                                                         0.077078       0.017595
                          1       7    5dxy              7.884570      -3.670241
                                                         3.894698      -2.143848
                                                         1.513589      -1.293455
                                                         0.596768      -0.123865
                                                         0.222222       0.007077
                                                         0.077078       0.030475
                          1       7    5dxz              7.884570      -3.670241
                                                         3.894698      -2.143848
                                                         1.513589      -1.293455
                                                         0.596768      -0.123865
                                                         0.222222       0.007077
                                                         0.077078       0.030475
                          1       7    5dy2              7.884570      -2.119015
                                                         3.894698      -1.237751
                                                         1.513589      -0.746777
                                                         0.596768      -0.071514
                                                         0.222222       0.004086
                                                         0.077078       0.017595
                          1       7    5dyz              7.884570      -3.670241
                                                         3.894698      -2.143848
                                                         1.513589      -1.293455
                                                         0.596768      -0.123865
                                                         0.222222       0.007077
                                                         0.077078       0.030475
                          1       7    5dz2              7.884570      -2.119015
                                                         3.894698      -1.237751
                                                         1.513589      -0.746777
                                                         0.596768      -0.071514
                                                         0.222222       0.004086
                                                         0.077078       0.017595

                          1       8    5fx3              7.884570      -0.342058
                                                         3.894698       0.375798
                                                         1.513589      -0.706469
                                                         0.596768      -0.229994
                                                         0.222222      -0.012723
                                                         0.077078       0.003932
                          1       8    5fx2y             7.884570      -0.764866
                                                         3.894698       0.840310
                                                         1.513589      -1.579712
                                                         0.596768      -0.514282
                                                         0.222222      -0.028450
                                                         0.077078       0.008792
                          1       8    5fx2z             7.884570      -0.764866
                                                         3.894698       0.840310
                                                         1.513589      -1.579712
                                                         0.596768      -0.514282
                                                         0.222222      -0.028450
                                                         0.077078       0.008792
                          1       8    5fxy2             7.884570      -0.764866
                                                         3.894698       0.840310
                                                         1.513589      -1.579712
                                                         0.596768      -0.514282
                                                         0.222222      -0.028450
                                                         0.077078       0.008792
                          1       8    5fxyz             7.884570      -1.324787
                                                         3.894698       1.455460
                                                         1.513589      -2.736142
                                                         0.596768      -0.890763
                                                         0.222222      -0.049276
                                                         0.077078       0.015229
                          1       8    5fxz2             7.884570      -0.764866
                                                         3.894698       0.840310
                                                         1.513589      -1.579712
                                                         0.596768      -0.514282
                                                         0.222222      -0.028450
                                                         0.077078       0.008792
                          1       8    5fy3              7.884570      -0.342058
                                                         3.894698       0.375798
                                                         1.513589      -0.706469
                                                         0.596768      -0.229994
                                                         0.222222      -0.012723
                                                         0.077078       0.003932
                          1       8    5fy2z             7.884570      -0.764866
                                                         3.894698       0.840310
                                                         1.513589      -1.579712
                                                         0.596768      -0.514282
                                                         0.222222      -0.028450
                                                         0.077078       0.008792
                          1       8    5fyz2             7.884570      -0.764866
                                                         3.894698       0.840310
                                                         1.513589      -1.579712
                                                         0.596768      -0.514282
                                                         0.222222      -0.028450
                                                         0.077078       0.008792
                          1       8    5fz3              7.884570      -0.342058
                                                         3.894698       0.375798
                                                         1.513589      -0.706469
                                                         0.596768      -0.229994
                                                         0.222222      -0.012723
                                                         0.077078       0.003932

       Atomic covalent radius [Angstrom]:                                  1.320

       Atomic van der Waals radius [Angstrom]:                             1.760

     GTH Potential information for                                   GTH-PBE-q12

       Description:                       Goedecker-Teter-Hutter pseudopotential
                                           Goedecker et al., PRB 54, 1703 (1996)
                                          Hartwigsen et al., PRB 58, 3641 (1998)
                                                      Krack, TCA 114, 145 (2005)

       Gaussian exponent of the core charge distribution:               3.462604
       Electronic configuration (s p d ...):                           4   6   2

       Parameters of the local part of the GTH pseudopotential:

                          rloc        C1          C2          C3          C4
                        0.380000    8.711442   -0.700287

       Parameters of the non-local part of the GTH pseudopotential:

                   l      r(l)      h(i,j,l)

                   0    0.337771    2.575264    3.692971
                                    3.692971   -4.767605
                   1    0.242531   -4.630541    8.870875
                                    8.870875  -10.496161
                   2    0.243317   -9.406653

  2. Atomic kind: O                                     Number of atoms:     128

     Orbital Basis Set                                     DZVP-MOLOPT-SR-GTH-q6

       Number of orbital shell sets:                                           1
       Number of orbital shells:                                               5
       Number of primitive Cartesian functions:                                5
       Number of Cartesian basis functions:                                   14
       Number of spherical basis functions:                                   13
       Norm type:                                                              2

       Normalised Cartesian orbitals:

                        Set   Shell   Orbital            Exponent    Coefficient

                          1       1    2s               10.389228       0.396646
                                                         3.849621       0.208811
                                                         1.388401      -0.301641
                                                         0.496955      -0.274061
                                                         0.162492      -0.033677

                          1       2    3s               10.389228       0.303673
                                                         3.849621       0.240943
                                                         1.388401      -0.313066
                                                         0.496955      -0.043055
                                                         0.162492       0.213991

                          1       3    3px              10.389228      -1.530415
                                                         3.849621      -1.371928
                                                         1.388401      -0.761951
                                                         0.496955      -0.253695
                                                         0.162492      -0.035541
                          1       3    3py              10.389228      -1.530415
                                                         3.849621      -1.371928
                                                         1.388401      -0.761951
                                                         0.496955      -0.253695
                                                         0.162492      -0.035541
                          1       3    3pz              10.389228      -1.530415
                                                         3.849621      -1.371928
                                                         1.388401      -0.761951
                                                         0.496955      -0.253695
                                                         0.162492      -0.035541

                          1       4    4px              10.389228      -0.565392
                                                         3.849621      -0.038231
                                                         1.388401      -0.382373
                                                         0.496955       0.179070
                                                         0.162492       0.122714
                          1       4    4py              10.389228      -0.565392
                                                         3.849621      -0.038231
                                                         1.388401      -0.382373
                                                         0.496955       0.179070
                                                         0.162492       0.122714
                          1       4    4pz              10.389228      -0.565392
                                                         3.849621      -0.038231
                                                         1.388401      -0.382373
                                                         0.496955       0.179070
                                                         0.162492       0.122714

                          1       5    4dx2             10.389228       1.867377
                                                         3.849621       0.670994
                                                         1.388401       1.353441
                                                         0.496955       0.273538
                                                         0.162492       0.006620
                          1       5    4dxy             10.389228       3.234392
                                                         3.849621       1.162195
                                                         1.388401       2.344229
                                                         0.496955       0.473781
                                                         0.162492       0.011466
                          1       5    4dxz             10.389228       3.234392
                                                         3.849621       1.162195
                                                         1.388401       2.344229
                                                         0.496955       0.473781
                                                         0.162492       0.011466
                          1       5    4dy2             10.389228       1.867377
                                                         3.849621       0.670994
                                                         1.388401       1.353441
                                                         0.496955       0.273538
                                                         0.162492       0.006620
                          1       5    4dyz             10.389228       3.234392
                                                         3.849621       1.162195
                                                         1.388401       2.344229
                                                         0.496955       0.473781
                                                         0.162492       0.011466
                          1       5    4dz2             10.389228       1.867377
                                                         3.849621       0.670994
                                                         1.388401       1.353441
                                                         0.496955       0.273538
                                                         0.162492       0.006620

       Atomic covalent radius [Angstrom]:                                  0.730

       Atomic van der Waals radius [Angstrom]:                             1.520

     GTH Potential information for                                    GTH-PBE-q6

       Description:                       Goedecker-Teter-Hutter pseudopotential
                                           Goedecker et al., PRB 54, 1703 (1996)
                                          Hartwigsen et al., PRB 58, 3641 (1998)
                                                      Krack, TCA 114, 145 (2005)

       Gaussian exponent of the core charge distribution:               8.360253
       Electronic configuration (s p d ...):                               2   4

       Parameters of the local part of the GTH pseudopotential:

                          rloc        C1          C2          C3          C4
                        0.244554  -16.667215    2.487311

       Parameters of the non-local part of the GTH pseudopotential:

                   l      r(l)      h(i,j,l)

                   0    0.220956   18.337458
                   1    0.211332

     A DFT+U correction is applied to atoms of this atomic kind:
       Angular quantum momentum number L:                                      1
       U(eff) = (U - J) value in [eV]:                                     2.200


 MOLECULE KIND INFORMATION


 All atoms are their own molecule, skipping detailed information


 TOTAL NUMBERS AND MAXIMUM NUMBERS

  Total number of            - Atomic kinds:                                   2
                             - Atoms:                                        192
                             - Shell sets:                                   192
                             - Shells:                                      1152
                             - Primitive Cartesian functions:               1024
                             - Cartesian basis functions:                   3776
                             - Spherical basis functions:                   3328

  Maximum angular momentum of- Orbital basis functions:                        3
                             - Local part of the GTH pseudopotential:          2
                             - Non-local part of the GTH pseudopotential:      3


 MODULE QUICKSTEP: ATOMIC COORDINATES IN ANGSTROM

   Atom Kind Element         X             Y             Z       Z(eff)     Mass
      1    1 Ti   22      0.000801      0.000790     -0.000001  12.0000  47.8670
      2    1 Ti   22      1.888415      1.888422      4.807510  12.0000  47.8670
      3    1 Ti   22      0.000793      1.888390      2.402070  12.0000  47.8670
      4    1 Ti   22      1.888405      0.000789      7.212947  12.0000  47.8670
      5    1 Ti   22      0.000811      3.776044      0.003086  12.0000  47.8670
      6    1 Ti   22      1.888423     13.237830      4.805774  12.0000  47.8670
      7    1 Ti   22     11.350276      1.888404      2.403680  12.0000  47.8670
      8    1 Ti   22      5.669453      0.000848      7.216958  12.0000  47.8670
      9    1 Ti   22      1.888444      3.776067      7.209840  12.0000  47.8670
     10    1 Ti   22      0.000807     13.237797      2.403810  12.0000  47.8670
     11    1 Ti   22      5.669484      1.888541      4.803458  12.0000  47.8670
     12    1 Ti   22     11.350264      0.000778     -0.001620  12.0000  47.8670
     13    1 Ti   22      3.776052      0.000812     -0.003077  12.0000  47.8670
     14    1 Ti   22     13.237828      1.888420      4.809245  12.0000  47.8670
     15    1 Ti   22     13.237811      0.000808      7.211223  12.0000  47.8670
     16    1 Ti   22      3.776068      1.888453      2.405179  12.0000  47.8670
     17    1 Ti   22      1.888536      5.669490      4.811559  12.0000  47.8670
     18    1 Ti   22      0.000779     11.350273      0.001612  12.0000  47.8670
     19    1 Ti   22      0.000846      5.669452      2.398053  12.0000  47.8670
     20    1 Ti   22      1.888410     11.350270      7.211338  12.0000  47.8670
     21    1 Ti   22      0.000842      7.569609      0.005648  12.0000  47.8670
     22    1 Ti   22      1.888471      9.462822      4.808829  12.0000  47.8670
     23    1 Ti   22      7.569601      1.888522      2.407753  12.0000  47.8670
     24    1 Ti   22      9.462808      0.000814      7.214255  12.0000  47.8670
     25    1 Ti   22      1.888521      7.569595      7.207269  12.0000  47.8670
     26    1 Ti   22      0.000815      9.462809      2.400769  12.0000  47.8670
     27    1 Ti   22      9.462820      1.888475      4.806188  12.0000  47.8670
     28    1 Ti   22      7.569601      0.000844     -0.005643  12.0000  47.8670
     29    1 Ti   22      3.776102      3.776106     -0.000001  12.0000  47.8670
     30    1 Ti   22     13.237825     13.237833      4.807519  12.0000  47.8670
     31    1 Ti   22     11.350165      5.669475      2.399631  12.0000  47.8670
     32    1 Ti   22      5.669480     11.350154      7.215386  12.0000  47.8670
     33    1 Ti   22     13.237793      3.776064      7.208143  12.0000  47.8670
     34    1 Ti   22      3.776067     13.237790      2.406883  12.0000  47.8670
     35    1 Ti   22      5.669522      5.669529      4.807506  12.0000  47.8670
     36    1 Ti   22     11.350264     11.350269      0.000000  12.0000  47.8670
     37    1 Ti   22     11.350282     13.237818      2.405420  12.0000  47.8670
     38    1 Ti   22      5.669500      3.776196      7.213939  12.0000  47.8670
     39    1 Ti   22      3.776054     11.350229     -0.001493  12.0000  47.8670
     40    1 Ti   22     13.237779      5.669467      4.813252  12.0000  47.8670
     41    1 Ti   22      5.669472     13.237781      4.801771  12.0000  47.8670
     42    1 Ti   22     11.350224      3.776052      0.001492  12.0000  47.8670
     43    1 Ti   22     13.237821     11.350269      7.209602  12.0000  47.8670
     44    1 Ti   22      3.776193      5.669504      2.401082  12.0000  47.8670
     45    1 Ti   22      3.776182      7.569560      0.002619  12.0000  47.8670
     46    1 Ti   22     13.237817      9.462831      4.810540  12.0000  47.8670
     47    1 Ti   22      7.569556      5.669514      2.403694  12.0000  47.8670
     48    1 Ti   22      9.462811     11.350229      7.212658  12.0000  47.8670
     49    1 Ti   22     13.237776      7.569613      7.205579  12.0000  47.8670
     50    1 Ti   22      3.776111      9.462756      2.403851  12.0000  47.8670
     51    1 Ti   22      9.462684      5.669525      4.810280  12.0000  47.8670
     52    1 Ti   22      7.569588     11.350172     -0.004066  12.0000  47.8670
     53    1 Ti   22     11.350235      9.462803      2.402353  12.0000  47.8670
     54    1 Ti   22      5.669511      7.569550      7.211318  12.0000  47.8670
     55    1 Ti   22      5.669525      9.462692      4.804730  12.0000  47.8670
     56    1 Ti   22     11.350164      7.569588      0.004059  12.0000  47.8670
     57    1 Ti   22      9.462756      3.776111      7.211165  12.0000  47.8670
     58    1 Ti   22      7.569620     13.237773      2.409444  12.0000  47.8670
     59    1 Ti   22      7.569557      3.776182     -0.002621  12.0000  47.8670
     60    1 Ti   22      9.462829     13.237827      4.804481  12.0000  47.8670
     61    1 Ti   22      7.569548      7.569555     -0.000001  12.0000  47.8670
     62    1 Ti   22      9.462788      9.462787      4.807509  12.0000  47.8670
     63    1 Ti   22      7.569570      9.462682      2.406464  12.0000  47.8670
     64    1 Ti   22      9.462680      7.569565      7.208554  12.0000  47.8670
     65    2 O     8      0.000888      0.001592      1.992880   6.0000  15.9994
     66    2 O     8      1.884821      1.887558      6.800744   6.0000  15.9994
     67    2 O     8      0.001583      1.884784      4.397061   6.0000  15.9994
     68    2 O     8      1.887575      0.000882      9.204074   6.0000  15.9994
     69    2 O     8      1.884786      0.001582      5.217961   6.0000  15.9994
     70    2 O     8      0.000883      1.887575      0.410947   6.0000  15.9994
     71    2 O     8      1.887558      1.884822      2.814275   6.0000  15.9994
     72    2 O     8      0.001594      0.000887      7.622139   6.0000  15.9994
     73    2 O     8      0.000922      3.775997      1.990971   6.0000  15.9994
     74    2 O     8      1.884786     13.236992      6.800813   6.0000  15.9994
     75    2 O     8     11.351128      1.884815      4.397048   6.0000  15.9994
     76    2 O     8      5.672143      0.000868      9.205378   6.0000  15.9994
     77    2 O     8      1.884951      3.775969      5.219841   6.0000  15.9994
     78    2 O     8      0.000887     13.236983      0.410877   6.0000  15.9994
     79    2 O     8      5.672122      1.884947      2.813027   6.0000  15.9994
     80    2 O     8     11.351111      0.000881      7.622153   6.0000  15.9994
     81    2 O     8      3.775998      0.000921      7.624045   6.0000  15.9994
     82    2 O     8     13.236994      1.884786      2.814207   6.0000  15.9994
     83    2 O     8     13.236985      0.000887      9.204140   6.0000  15.9994
     84    2 O     8      3.775974      1.884951      4.395175   6.0000  15.9994
     85    2 O     8      1.884944      5.672108      6.801994   6.0000  15.9994
     86    2 O     8      0.000880     11.351112      1.992868   6.0000  15.9994
     87    2 O     8      0.000867      5.672149      0.409644   6.0000  15.9994
     88    2 O     8      1.884817     11.351125      5.217972   6.0000  15.9994
     89    2 O     8      0.000867      7.566957      1.994115   6.0000  15.9994
     90    2 O     8      1.884947      9.462856      6.798990   6.0000  15.9994
     91    2 O     8      7.566991      1.884944      4.398242   6.0000  15.9994
     92    2 O     8      9.462834      0.000920      9.202294   6.0000  15.9994
     93    2 O     8      1.884944      7.566984      5.216781   6.0000  15.9994
     94    2 O     8      0.000921      9.462829      0.412729   6.0000  15.9994
     95    2 O     8      9.462856      1.884949      2.816030   6.0000  15.9994
     96    2 O     8      7.566961      0.000868      7.620909   6.0000  15.9994
     97    2 O     8      3.769755      0.001587      1.993278   6.0000  15.9994
     98    2 O     8     13.237597      1.887575      6.800312   6.0000  15.9994
     99    2 O     8      0.001616      5.656024      4.396587   6.0000  15.9994
    100    2 O     8      1.887556     11.353740      9.204502   6.0000  15.9994
    101    2 O     8     13.237594      0.001595      5.218388   6.0000  15.9994
    102    2 O     8      3.769859      1.887605      0.410574   6.0000  15.9994
    103    2 O     8      1.887755      5.656297      2.814759   6.0000  15.9994
    104    2 O     8      0.001581     11.353772      7.621713   6.0000  15.9994
    105    2 O     8     11.353739      1.887557      0.410515   6.0000  15.9994
    106    2 O     8      5.656021      0.001617      5.218431   6.0000  15.9994
    107    2 O     8      5.656302      1.887752      6.800259   6.0000  15.9994
    108    2 O     8     11.353771      0.001582      1.993306   6.0000  15.9994
    109    2 O     8      1.887603      3.769858      9.204446   6.0000  15.9994
    110    2 O     8      0.001595     13.237593      4.396630   6.0000  15.9994
    111    2 O     8      0.001587      3.769754      7.621740   6.0000  15.9994
    112    2 O     8      1.887575     13.237597      2.814707   6.0000  15.9994
    113    2 O     8      3.770061      3.776011      1.991439   6.0000  15.9994
    114    2 O     8     13.237592     13.236987      6.800381   6.0000  15.9994
    115    2 O     8     11.350932      5.656261      4.396560   6.0000  15.9994
    116    2 O     8      5.672111     11.353619      9.205751   6.0000  15.9994
    117    2 O     8     13.237560      3.776000      5.220300   6.0000  15.9994
    118    2 O     8      3.769754     13.236988      0.410476   6.0000  15.9994
    119    2 O     8      5.672165      5.656853      2.813204   6.0000  15.9994
    120    2 O     8     11.351127     11.353742      7.621724   6.0000  15.9994
    121    2 O     8     11.353774     13.236991      0.410449   6.0000  15.9994
    122    2 O     8      5.656566      3.776164      5.220115   6.0000  15.9994
    123    2 O     8      3.775972     11.353612      7.623591   6.0000  15.9994
    124    2 O     8     13.236963      5.656047      2.814679   6.0000  15.9994
    125    2 O     8      5.656053     13.236966      6.800336   6.0000  15.9994
    126    2 O     8     11.353613      3.775968      1.991429   6.0000  15.9994
    127    2 O     8     13.236993     11.353773      9.204570   6.0000  15.9994
    128    2 O     8      3.776159      5.656569      4.394905   6.0000  15.9994
    129    2 O     8      5.656854      5.672172      6.801819   6.0000  15.9994
    130    2 O     8     11.353742     11.351128      1.993296   6.0000  15.9994
    131    2 O     8     13.236989      3.769752      9.204543   6.0000  15.9994
    132    2 O     8      3.775997     13.237563      4.394718   6.0000  15.9994
    133    2 O     8     11.353619      5.672110      0.409271   6.0000  15.9994
    134    2 O     8      5.656250     11.350933      5.218458   6.0000  15.9994
    135    2 O     8      3.776019      3.770061      7.623586   6.0000  15.9994
    136    2 O     8     13.236985     13.237593      2.814639   6.0000  15.9994
    137    2 O     8     13.237599     11.351110      5.218403   6.0000  15.9994
    138    2 O     8      3.770106      5.672091      0.409273   6.0000  15.9994
    139    2 O     8      5.672153     13.237612      2.813400   6.0000  15.9994
    140    2 O     8     11.351080      3.769851      7.621784   6.0000  15.9994
    141    2 O     8      3.769850     11.351083      1.993238   6.0000  15.9994
    142    2 O     8     13.237614      5.672146      6.801622   6.0000  15.9994
    143    2 O     8     11.351113     13.237599      4.396620   6.0000  15.9994
    144    2 O     8      5.672101      3.770106      9.205748   6.0000  15.9994
    145    2 O     8      3.770103      7.567005      1.994480   6.0000  15.9994
    146    2 O     8     13.237560      9.462833      6.798533   6.0000  15.9994
    147    2 O     8      7.566935      5.656817      4.398064   6.0000  15.9994
    148    2 O     8      9.462854     11.353620      9.202748   6.0000  15.9994
    149    2 O     8     13.237615      7.566955      5.217155   6.0000  15.9994
    150    2 O     8      3.770050      9.462813      0.412267   6.0000  15.9994
    151    2 O     8      9.462662      5.656577      2.816314   6.0000  15.9994
    152    2 O     8      7.566984     11.353621      7.620534   6.0000  15.9994
    153    2 O     8     11.353619      9.462858      0.412272   6.0000  15.9994
    154    2 O     8      5.656814      7.566924      5.216955   6.0000  15.9994
    155    2 O     8      5.656581      9.462659      6.798701   6.0000  15.9994
    156    2 O     8     11.353621      7.566990      1.994485   6.0000  15.9994
    157    2 O     8      9.462809      3.770050      9.202753   6.0000  15.9994
    158    2 O     8      7.566954     13.237615      4.397870   6.0000  15.9994
    159    2 O     8      7.567004      3.770106      7.620537   6.0000  15.9994
    160    2 O     8      9.462833     13.237561      2.816492   6.0000  15.9994
    161    2 O     8      7.582777      0.001613      1.992872   6.0000  15.9994
    162    2 O     8      9.468711      1.887603      6.800672   6.0000  15.9994
    163    2 O     8      0.001586      9.468809      4.397014   6.0000  15.9994
    164    2 O     8      1.887739      7.582541      9.204052   6.0000  15.9994
    165    2 O     8      9.468810      0.001588      5.218005   6.0000  15.9994
    166    2 O     8      7.582543      1.887739      0.410965   6.0000  15.9994
    167    2 O     8      1.887598      9.468710      2.814348   6.0000  15.9994
    168    2 O     8      0.001613      7.582775      7.622147   6.0000  15.9994
    169    2 O     8      7.582250      3.776151      1.991172   6.0000  15.9994
    170    2 O     8      9.468810     13.236991      6.800767   6.0000  15.9994
    171    2 O     8     11.351080      9.468721      4.396974   6.0000  15.9994
    172    2 O     8      5.672153      7.582013      9.205572   6.0000  15.9994
    173    2 O     8      9.468519      3.776009      5.219854   6.0000  15.9994
    174    2 O     8      7.582775     13.236968      0.410884   6.0000  15.9994
    175    2 O     8      5.672086      9.468481      2.813045   6.0000  15.9994
    176    2 O     8     11.350949      7.582556      7.622177   6.0000  15.9994
    177    2 O     8      3.776146      7.582249      7.623843   6.0000  15.9994
    178    2 O     8     13.236988      9.468810      2.814252   6.0000  15.9994
    179    2 O     8     13.236967      7.582776      9.204135   6.0000  15.9994
    180    2 O     8      3.776004      9.468515      4.395164   6.0000  15.9994
    181    2 O     8      9.468481      5.672097      6.801969   6.0000  15.9994
    182    2 O     8      7.582557     11.350951      1.992842   6.0000  15.9994
    183    2 O     8      7.582012      5.672167      0.409448   6.0000  15.9994
    184    2 O     8      9.468720     11.351081      5.218047   6.0000  15.9994
    185    2 O     8      7.582017      7.566947      1.994309   6.0000  15.9994
    186    2 O     8      9.468527      9.462821      6.798976   6.0000  15.9994
    187    2 O     8      7.566987      9.468485      4.398216   6.0000  15.9994
    188    2 O     8      9.462683      7.582269      9.202482   6.0000  15.9994
    189    2 O     8      9.468482      7.567012      5.216804   6.0000  15.9994
    190    2 O     8      7.582266      9.462680      0.412540   6.0000  15.9994
    191    2 O     8      9.462813      9.468527      2.816048   6.0000  15.9994
    192    2 O     8      7.566947      7.582019      7.620714   6.0000  15.9994



 SCF PARAMETERS         Density guess:                                   RESTART
                        --------------------------------------------------------
                        max_scf:                                              40
                        max_scf_history:                                       0
                        max_diis:                                              4
                        --------------------------------------------------------
                        eps_scf:                                        1.00E-06
                        eps_scf_history:                                0.00E+00
                        eps_diis:                                       1.00E-01
                        eps_eigval:                                     1.00E-05
                        --------------------------------------------------------
                        level_shift [a.u.]:                             0.000000
                        --------------------------------------------------------
                        Outer loop SCF in use 
                        No variables optimised in outer loop
                        eps_scf                                         1.00E-06
                        max_scf                                               60
                        No outer loop optimization
                        step_size                                       5.00E-01

 PW_GRID| Information for grid number                                          1
 PW_GRID| Grid distributed over                                   128 processors
 PW_GRID| Real space group dimensions                                   128    1
 PW_GRID| the grid is blocked:                                                NO
 PW_GRID| Cutoff [a.u.]                                                    300.0
 PW_GRID| spherical cutoff:                                                   NO
 PW_GRID|   Bounds   1           -112     112                Points:         225
 PW_GRID|   Bounds   2           -112     112                Points:         225
 PW_GRID|   Bounds   3            -72      71                Points:         144
 PW_GRID| Volume element (a.u.^3)  0.2035E-02     Volume (a.u.^3)     14833.7304
 PW_GRID| Grid span                                                    FULLSPACE
 PW_GRID|   Distribution                         Average         Max         Min
 PW_GRID|   G-Vectors                            56953.1       57150       56925
 PW_GRID|   G-Rays                                 253.1         254         253
 PW_GRID|   Real Space Points                    56953.1       64800       32400

 PW_GRID| Information for grid number                                          2
 PW_GRID| Number of the reference grid                                         1
 PW_GRID| Grid distributed over                                   128 processors
 PW_GRID| Real space group dimensions                                   128    1
 PW_GRID| the grid is blocked:                                                NO
 PW_GRID| Cutoff [a.u.]                                                    100.0
 PW_GRID| spherical cutoff:                                                   NO
 PW_GRID|   Bounds   1            -67      67                Points:         135
 PW_GRID|   Bounds   2            -67      67                Points:         135
 PW_GRID|   Bounds   3            -40      40                Points:          81
 PW_GRID| Volume element (a.u.^3)  0.1005E-01     Volume (a.u.^3)     14833.7304
 PW_GRID| Grid span                                                    FULLSPACE
 PW_GRID|   Distribution                         Average         Max         Min
 PW_GRID|   G-Vectors                            11533.0       12150       10800
 PW_GRID|   G-Rays                                  85.4          90          80
 PW_GRID|   Real Space Points                    11533.0       21870       10935

 PW_GRID| Information for grid number                                          3
 PW_GRID| Number of the reference grid                                         1
 PW_GRID| Grid distributed over                                   128 processors
 PW_GRID| Real space group dimensions                                     8   16
 PW_GRID| the grid is blocked:                                                NO
 PW_GRID| Cutoff [a.u.]                                                     33.3
 PW_GRID| spherical cutoff:                                                   NO
 PW_GRID|   Bounds   1            -37      37                Points:          75
 PW_GRID|   Bounds   2            -37      37                Points:          75
 PW_GRID|   Bounds   3            -24      23                Points:          48
 PW_GRID| Volume element (a.u.^3)  0.5494E-01     Volume (a.u.^3)     14833.7304
 PW_GRID| Grid span                                                    FULLSPACE
 PW_GRID|   Distribution                         Average         Max         Min
 PW_GRID|   G-Vectors                             2109.4        2475        1725
 PW_GRID|   G-Rays                                  28.1          33          23
 PW_GRID|   Real Space Points                     2109.4        2400        1728

 PW_GRID| Information for grid number                                          4
 PW_GRID| Number of the reference grid                                         1
 PW_GRID| Grid distributed over                                   128 processors
 PW_GRID| Real space group dimensions                                     8   16
 PW_GRID| the grid is blocked:                                                NO
 PW_GRID| Cutoff [a.u.]                                                     11.1
 PW_GRID| spherical cutoff:                                                   NO
 PW_GRID|   Bounds   1            -22      22                Points:          45
 PW_GRID|   Bounds   2            -22      22                Points:          45
 PW_GRID|   Bounds   3            -13      13                Points:          27
 PW_GRID| Volume element (a.u.^3)  0.2713         Volume (a.u.^3)     14833.7304
 PW_GRID| Grid span                                                    FULLSPACE
 PW_GRID|   Distribution                         Average         Max         Min
 PW_GRID|   G-Vectors                              427.1         585         270
 PW_GRID|   G-Rays                                   9.5          13           6
 PW_GRID|   Real Space Points                      427.1         486         270

 POISSON| Solver                                                        PERIODIC
 POISSON| Periodicity                                                        XYZ

 RS_GRID| Information for grid number                                          1
 RS_GRID|   Bounds   1           -112     112                Points:         225
 RS_GRID|   Bounds   2           -112     112                Points:         225
 RS_GRID|   Bounds   3            -72      71                Points:         144
 RS_GRID| Real space distribution over                                  8 groups
 RS_GRID| Real space distribution along direction                              1
 RS_GRID| Border size                                                         26
 RS_GRID| Real space distribution over                                 16 groups
 RS_GRID| Real space distribution along direction                              2
 RS_GRID| Border size                                                         26
 RS_GRID|   Distribution                         Average         Max         Min
 RS_GRID|   Planes                                  80.1          81          80
 RS_GRID|   Distribution                         Average         Max         Min
 RS_GRID|   Planes                                  66.1          67          66

 RS_GRID| Information for grid number                                          2
 RS_GRID|   Bounds   1            -67      67                Points:         135
 RS_GRID|   Bounds   2            -67      67                Points:         135
 RS_GRID|   Bounds   3            -40      40                Points:          81
 RS_GRID| Real space distribution over                                  8 groups
 RS_GRID| Real space distribution along direction                              1
 RS_GRID| Border size                                                         24
 RS_GRID| Real space distribution over                                 16 groups
 RS_GRID| Real space distribution along direction                              2
 RS_GRID| Border size                                                         24
 RS_GRID|   Distribution                         Average         Max         Min
 RS_GRID|   Planes                                  64.9          65          64
 RS_GRID|   Distribution                         Average         Max         Min
 RS_GRID|   Planes                                  56.4          57          56

 RS_GRID| Information for grid number                                          3
 RS_GRID|   Bounds   1            -37      37                Points:          75
 RS_GRID|   Bounds   2            -37      37                Points:          75
 RS_GRID|   Bounds   3            -24      23                Points:          48
 RS_GRID| Real space fully replicated
 RS_GRID| Group size                                                           1

 RS_GRID| Information for grid number                                          4
 RS_GRID|   Bounds   1            -22      22                Points:          45
 RS_GRID|   Bounds   2            -22      22                Points:          45
 RS_GRID|   Bounds   3            -13      13                Points:          27
 RS_GRID| Real space fully replicated
 RS_GRID| Group size                                                           1

 BFGS| Use rational function optimization for step estimation:                NO
 BFGS| Use model Hessian for initial guess:                                  YES
 BFGS| Restart Hessian:                                                       NO
 BFGS| Trust radius:                                                       0.472

 *******************************************************************************
 ***                     STARTING GEOMETRY OPTIMIZATION                      ***
 ***                                   BFGS                                  ***
 *******************************************************************************

 Spin 1

 Number of electrons:                                                        768
 Number of occupied orbitals:                                                768
 Number of molecular orbitals:                                               768

 Spin 2

 Number of electrons:                                                        767
 Number of occupied orbitals:                                                767
 Number of molecular orbitals:                                               767

 Number of orbital functions:                                               3328
 Number of independent orbital functions:                                   3328

 Extrapolation method: initial_guess

 *** WARNING in qs_initial_guess.F:306 :: User requested to restart the    ***
 *** wavefunction from the file named: tio2-RESTART.wfn. This file does    ***
 *** not exist. Please check the existence of the file or change properly  ***
 *** the value of the keyword WFN_RESTART_FILE_NAME. Calculation continues ***
 *** using ATOMIC GUESS.                                                   ***


 Atomic guess: The first density matrix is obtained in terms of atomic orbitals
               and electronic configurations assigned to each atomic kind

 Guess for atomic kind: Ti

 Electronic structure
    Total number of core electrons                                         10.00
    Total number of valence electrons                                      12.00
    Total number of electrons                                              22.00
    Multiplicity                                                   not specified
    S   [  2.00  2.00] 2.00  2.00
    P   [  6.00] 6.00
    D      2.00


 *******************************************************************************
                  Iteration          Convergence                     Energy [au]
 *******************************************************************************
                          1         2.59099                     -56.573945749309
                          2        0.737518                     -57.461623245624
                          3        0.123244E-01                 -57.676656834797
                          4        0.338536E-02                 -57.676690535970
                          5        0.252157E-03                 -57.676697146183
                          6        0.162704E-05                 -57.676697160103
                          7        0.846593E-06                 -57.676697160104

 Energy components [Hartree]           Total Energy ::          -57.676697160104
                                        Band Energy ::          -13.440549799540
                                     Kinetic Energy ::           25.008468428381
                                   Potential Energy ::          -82.685165588485
                                      Virial (-V/T) ::            3.306286661467
                                        Core Energy ::          -97.155838374470
                                          XC Energy ::           -6.919409696495
                                     Coulomb Energy ::           46.398550910862
                       Total Pseudopotential Energy ::         -122.259340742080
                       Local Pseudopotential Energy ::         -118.928992669456
                    Nonlocal Pseudopotential Energy ::           -3.330348072625
                                        Confinement ::            0.950339392289

 Orbital energies  State     L     Occupation   Energy[a.u.]          Energy[eV]

                       1     0          2.000      -2.312566          -62.928123
                       2     0          2.000      -0.123060           -3.348633

                       1     1          6.000      -1.385567          -37.703193

                       1     2          2.000      -0.127948           -3.481643


 Total Electron Density at R=0:                                         0.004726

 Guess for atomic kind: O

 Electronic structure
    Total number of core electrons                                          2.00
    Total number of valence electrons                                       6.00
    Total number of electrons                                               8.00
    Multiplicity                                                   not specified
    S   [  2.00] 2.00
    P      4.00


 *******************************************************************************
                  Iteration          Convergence                     Energy [au]
 *******************************************************************************
                          1        0.702811                     -15.577904332270
                          2        0.612408                     -15.588447180504
                          3        0.955344E-02                 -15.655871208406
                          4        0.223754E-02                 -15.655885053552
                          5        0.157183E-02                 -15.655885461027
                          6        0.124953E-02                 -15.655885607150
                          7        0.312011E-06                 -15.655885858066

 Energy components [Hartree]           Total Energy ::          -15.655885858066
                                        Band Energy ::           -2.983128125584
                                     Kinetic Energy ::           11.754765134683
                                   Potential Energy ::          -27.410650992749
                                      Virial (-V/T) ::            2.331875684345
                                        Core Energy ::          -26.153522949072
                                          XC Energy ::           -3.157392363346
                                     Coulomb Energy ::           13.655029454351
                       Total Pseudopotential Energy ::          -37.943026860963
                       Local Pseudopotential Energy ::          -39.220419683052
                    Nonlocal Pseudopotential Energy ::            1.277392822089
                                        Confinement ::            0.347387772086

 Orbital energies  State     L     Occupation   Energy[a.u.]          Energy[eV]

                       1     0          2.000      -0.861522          -23.443215

                       1     1          4.000      -0.315021           -8.572154


 Total Electron Density at R=0:                                         0.000093

 Spin 1
 Re-scaling the density matrix to get the right number of electrons for spin 1
                  # Electrons              Trace(P)               Scaling factor
                          768               768.001                        1.000

 Spin 2
 Re-scaling the density matrix to get the right number of electrons for spin 2
                  # Electrons              Trace(P)               Scaling factor
                          767               768.001                        0.999


 SCF WAVEFUNCTION OPTIMIZATION

  ----------------------------------- OT ---------------------------------------
  Minimizer      : DIIS                : direct inversion
                                         in the iterative subspace
                                         using   7 DIIS vectors
                                         safer DIIS on
  Preconditioner : FULL_SINGLE_INVERSE : inversion of 
                                         H + eS - 2*(Sc)(c^T*H*c+const)(Sc)^T
  Precond_solver : DEFAULT
  stepsize       :    0.08000000                  energy_gap     :    0.08000000
  eps_taylor     :   0.10000E-15                  max_taylor     :             4
  ----------------------------------- OT ---------------------------------------

  Step     Update method      Time    Convergence         Total energy    Change
  ------------------------------------------------------------------------------
     1 OT DIIS     0.80E-01    2.0     0.01006836     -5659.0856213227 -5.66E+03
     2 OT DIIS     0.80E-01    1.5     0.00726542     -5694.2014880316 -3.51E+01
     3 OT DIIS     0.80E-01    1.5     0.00457877     -5727.2904568026 -3.31E+01
     4 OT DIIS     0.80E-01    1.5     0.00365065     -5737.4451886990 -1.02E+01
     5 OT DIIS     0.80E-01    1.5     0.00267108     -5748.9355937323 -1.15E+01
     6 OT DIIS     0.80E-01    1.5     0.00220157     -5755.8633227101 -6.93E+00
     7 OT DIIS     0.80E-01    1.5     0.00184090     -5762.0734115917 -6.21E+00
     8 OT DIIS     0.80E-01    1.5     0.00147480     -5768.0288283188 -5.96E+00
     9 OT DIIS     0.80E-01    1.5     0.00127843     -5771.6435662513 -3.61E+00
    10 OT DIIS     0.80E-01    1.5     0.00099665     -5774.9297635549 -3.29E+00
    11 OT DIIS     0.80E-01    1.5     0.00090962     -5775.7454078155 -8.16E-01
    12 OT DIIS     0.80E-01    1.5     0.00073578     -5777.5693516968 -1.82E+00
    13 OT DIIS     0.80E-01    1.5     0.00060600     -5778.9029716980 -1.33E+00
    14 OT DIIS     0.80E-01    1.5     0.00050195     -5779.8401211202 -9.37E-01
    15 OT DIIS     0.80E-01    1.5     0.00045345     -5780.3241793216 -4.84E-01
    16 OT DIIS     0.80E-01    1.5     0.00038296     -5780.8548689706 -5.31E-01
    17 OT DIIS     0.80E-01    1.5     0.00035688     -5781.0684320951 -2.14E-01
    18 OT DIIS     0.80E-01    1.5     0.00030903     -5781.4030935516 -3.35E-01
    19 OT DIIS     0.80E-01    1.4     0.00027060     -5781.6282769629 -2.25E-01
    20 OT DIIS     0.80E-01    1.4     0.00025679     -5781.7398008569 -1.12E-01
    21 OT DIIS     0.80E-01    1.4     0.00023833     -5781.9164951683 -1.77E-01
    22 OT DIIS     0.80E-01    1.6     0.00022271     -5782.0180885372 -1.02E-01
    23 OT DIIS     0.80E-01    1.5     0.00019797     -5782.1963037769 -1.78E-01
    24 OT DIIS     0.80E-01    1.5     0.00017586     -5782.3101085449 -1.14E-01
    25 OT DIIS     0.80E-01    1.4     0.00017891     -5782.3281817847 -1.81E-02
    26 OT DIIS     0.80E-01    1.4     0.00014534     -5782.4508939431 -1.23E-01
    27 OT DIIS     0.80E-01    1.5     0.00014253     -5782.4877102149 -3.68E-02
    28 OT DIIS     0.80E-01    1.4     0.00013366     -5782.5296557862 -4.19E-02
    29 OT SD       0.80E-01    1.4     0.00013139     -5782.5712872078 -4.16E-02
    30 OT DIIS     0.80E-01    1.5     0.00012641     -5782.5781952357 -6.91E-03
    31 OT DIIS     0.80E-01    1.4     0.00012024     -5782.6261831344 -4.80E-02
    32 OT DIIS     0.80E-01    1.5     0.00010746     -5782.6594037824 -3.32E-02
    33 OT DIIS     0.80E-01    1.5     0.00009634     -5782.6960717405 -3.67E-02
    34 OT DIIS     0.80E-01    1.5     0.00008981     -5782.7263076216 -3.02E-02
    35 OT DIIS     0.80E-01    1.4     0.00008506     -5782.7445266084 -1.82E-02
    36 OT DIIS     0.80E-01    1.4     0.00007938     -5782.7609444425 -1.64E-02
    37 OT DIIS     0.80E-01    1.5     0.00007761     -5782.7771285986 -1.62E-02
    38 OT DIIS     0.80E-01    1.4     0.00007555     -5782.7818753587 -4.75E-03
    39 OT DIIS     0.80E-01    1.4     0.00007313     -5782.7942383913 -1.24E-02
    40 OT DIIS     0.80E-01    1.4     0.00006880     -5782.8143114060 -2.01E-02

  Leaving inner SCF loop after reaching    40 steps.


  Electronic density on regular grids:      -1534.9999999999        0.0000000001
  Core density on regular grids:             1535.9999999995       -0.0000000005
  Total charge density on r-space grids:        0.9999999996
  Total charge density g-space grids:           0.9999999996

  Overlap energy of the core charge distribution:               0.00000000000327
  Self energy of the core charge distribution:             -12156.89556134359555
  Core Hamiltonian energy:                                   3259.33225894519182
  Hartree energy:                                            4030.66049980209300
  Exchange-correlation energy:                               -922.12594398900876

  DFT+U energy:                                                 6.21443517932127

  Total energy:                                             -5782.81431140599580

  outer SCF iter =    1 RMS gradient =   0.69E-04 energy =      -5782.8143114060

  ----------------------------------- OT ---------------------------------------
[...]
 flops   416 x    32 x    32        1913206603776       0.0%    100.0%      0.0%     
 flops    96 x    64 x    64        2137425444864       0.0%    100.0%      0.0%     
 flops   416 x    64 x    32        3587262382080       0.0%    100.0%      0.0%     
 flops   416 x    32 x    64        3587262382080       0.0%    100.0%      0.0%     
 flops    96 x    32 x   208        4457046736896       0.0%    100.0%      0.0%     
 flops   416 x    32 x   208        5516172460032       0.0%    100.0%      0.0%     
 flops   416 x    64 x    64        6756010819584       0.0%    100.0%      0.0%     
 flops    96 x    64 x   208        8408556109824       0.0%    100.0%      0.0%     
 flops    13 x    32 x    13        8490874961920       0.0%    100.0%      0.0%     
 flops    26 x    32 x    26        8764774154240       0.0%    100.0%      0.0%     
 flops    26 x    32 x    13        8764774154240       0.0%    100.0%      0.0%     
 flops    13 x    32 x    26        8764774154240       0.0%    100.0%      0.0%     
 flops   416 x    64 x   208       10415656402944       0.0%    100.0%      0.0%     
 flops inhomo. stacks                    35653788     100.0%      0.0%      0.0%
 flops total                        97.889053E+12       0.0%    100.0%      0.0%
 flops max/rank                      1.017301E+12       0.0%    100.0%      0.0%
 matmuls inhomo. stacks                     51614     100.0%      0.0%      0.0%
 matmuls total                         2288778622       0.0%    100.0%      0.0%
 number of processed stacks              59887166       0.1%     99.9%      0.0%
 average stack size                                     1.0      38.3       0.0
 marketing flops                   106.763651E+12
 -------------------------------------------------------------------------------
 # multiplications                          43707
 max memory usage/rank             377.143296E+06
 # max total images/rank                        2
 # max 3D layers                                1
 # MPI messages exchanged               162240384
 MPI messages size (bytes):
  total size                        15.423784E+12
  min size                           0.000000E+00
  max size                         692.224000E+03
  average size                      95.067477E+03
 MPI breakdown and total messages size (bytes):
             size <=      128            76491632                  1848480
       128 < size <=     8192             7537168              44963180288
      8192 < size <=    32768            21583552             490228602240
     32768 < size <=   131072            27011072            2102734241800
    131072 < size <=  4194304            29616960           12780157777920
   4194304 < size <= 16777216                   0                        0
  16777216 < size                               0                        0
 -------------------------------------------------------------------------------

 *** WARNING in dbcsr_mm.F:301 :: Using a non-square number of MPI ranks ***
 *** might lead to poor performance. Used ranks: 128 Suggested: 121 256  ***

 -------------------------------------------------------------------------------
 -                                                                             -
 -                      DBCSR MESSAGE PASSING PERFORMANCE                      -
 -                                                                             -
 -------------------------------------------------------------------------------
 ROUTINE             CALLS      AVE VOLUME [Bytes]
 MP_Bcast               97                     12.
 MP_Allreduce       223472                     10.
 MP_Alltoall        159707                  28848.
 MP_ISend          2745472                  46947.
 MP_IRecv          2738532                  46646.
 -------------------------------------------------------------------------------

 -------------------------------------------------------------------------------
 -                                                                             -
 -                                DBM STATISTICS                               -
 -                                                                             -
 -------------------------------------------------------------------------------
    M  x    N  x    K                                          COUNT     PERCENT
 -------------------------------------------------------------------------------

 -------------------------------------------------------------------------------
 -                                                                             -
 -                                GRID STATISTICS                              -
 -                                                                             -
 -------------------------------------------------------------------------------
 LP    KERNEL             BACKEND                              COUNT     PERCENT
 5     collocate ortho    CPU                              143557208      25.06%
 5     integrate ortho    CPU                              141201698      24.65%
 6     integrate ortho    CPU                               75091594      13.11%
 6     collocate ortho    CPU                               73413860      12.81%
 4     collocate ortho    CPU                               65618722      11.45%
 4     integrate ortho    CPU                               63756158      11.13%
 0     integrate general  CPU                                5111808       0.89%
 0     collocate general  CPU                                2875392       0.50%
 7     integrate ortho    CPU                                1923344       0.34%
 1     integrate general  CPU                                 294912       0.05%
 2     collocate ortho    CPU                                  33280       0.01%
 3     collocate ortho    CPU                                  19968       0.00%
 -------------------------------------------------------------------------------

 MEMORY| Estimated peak process memory [MiB]                                 360

 -------------------------------------------------------------------------------
 ----                             MULTIGRID INFO                            ----
 -------------------------------------------------------------------------------
 count for grid        1:        2915989          cutoff [a.u.]          300.00
 count for grid        2:        2848173          cutoff [a.u.]          100.00
 count for grid        3:        3720992          cutoff [a.u.]           33.33
 count for grid        4:        4110622          cutoff [a.u.]           11.11
 total gridlevel count  :       13595776

 -------------------------------------------------------------------------------
 -                                                                             -
 -                         MESSAGE PASSING PERFORMANCE                         -
 -                                                                             -
 -------------------------------------------------------------------------------

 ROUTINE             CALLS      AVE VOLUME [Bytes]
 MP_Group                4
 MP_Bcast            23908                   7939.
 MP_Allreduce        66831                    422.
 MP_Sync              5783
 MP_Alltoall         19284                2213613.
 MP_SendRecv        245872                  11544.
 MP_ISendRecv       232156                  11544.
 MP_Wait            346740
 MP_comm_split        2015
 MP_ISend           206816                  78711.
 MP_IRecv           206276                  78909.
 MP_Write_All           78                 355816.
 -------------------------------------------------------------------------------


 -------------------------------------------------------------------------------
 -                                                                             -
 -                           R E F E R E N C E S                               -
 -                                                                             -
 -------------------------------------------------------------------------------
 
 CP2K version 2024.3, the CP2K developers group (2024).
 CP2K is freely available from https://www.cp2k.org/ .
 
 T. D. Kuehne, M. Iannuzzi, M. Del Ben, V. V. Rybkin, P. Seewald, F. Stein, T. 
 Laino, R. Z. Khaliullin, O. Schuett, F. Schiffmann, D. Golze, J. Wilhelm, S. 
 Chulkov, M. H. Bani-Hashemian, V. Weber, U. Borstnik, M. Taillefumier, A. S. 
 Jakobovits, A. Lazzaro, H. Pabst, T. Mueller, R. Schade, M. Guidon, S. 
 Andermatt, N. Holmberg, G. K. Schenter, A. Hehn, A. Bussy, F. Belleflamme, G. 
 Tabacchi, A. Gloess, M. Lass, I. Bethune, C. J. Mundy, C. Plessl, M. Watkins, 
 J. VandeVondele, M. Krack, J. Hutter.
 J. Chem. Phys. 152, 194103 (2020).
 CP2K: An electronic structure and molecular dynamics software package - 
 Quickstep: Efficient and accurate electronic structure calculations.
 https://doi.org/10.1063/5.0007045

 O. Schuett, P. Messmer, J. Hutter, J. VandeVondele.
 Electronic Structure Calculations on Graphics Processing Units, 173-190 (2016).
 GPU-Accelerated Sparse Matrix-Matrix Multiplication for Linear Scaling Density 
 Functional Theory.
 https://doi.org/10.1002/9781118670712.ch8

 A. Heinecke, G. Henry, M. Hutchinson, H. Pabst.
 Proceedings of Intl. Supercomputing Conference, 981-991 (2016).
 LIBXSMM: Accelerating Small Matrix Multiplications by Runtime Code Generation.
 https://doi.org/10.1109/SC.2016.83

 J. Hutter, M. Iannuzzi, F. Schiffmann, J. VandeVondele.
 WIREs Comput Mol Sci. 4, 15-25 (2014).
 CP2K: atomistic simulations of condensed matter systems.
 https://doi.org/10.1002/wcms.1159

 U. Borstnik, J. VandeVondele, V. Weber, J. Hutter.
 Parallel Comput. 40, 47-58 (2014).
 Sparse matrix multiplication: The distributed block-compressed sparse row 
 library.
 https://doi.org/10.1016/j.parco.2014.03.012

 A. Marek, V. Blum, R. Johanni, V. Havu, B. Lang, T. Auckenthaler, A. Heinecke, 
 H. Bungartz, H. Lederer.
 J. Phys. Condens. Matter 26, 213201 (2014).
 The ELPA library: scalable parallel eigenvalue solutions for electronic 
 structure theory and computational science.
 https://doi.org/10.1088/0953-8984/26/21/213201

 J. VandeVondele, J. Hutter.
 J. Chem. Phys. 127, 114105 (2007).
 Gaussian basis sets for accurate calculations on molecular systems in gas and 
 condensed phases.
 https://doi.org/10.1063/1.2770708

 T. D. Khne, M. Krack, F. R. Mohamed, M. Parrinello.
 Phys. Rev. Lett. 98, 066401 (2007).
 Efficient and accurate Car-Parrinello-like approach to Born-Oppenheimer 
 molecular dynamics.
 https://doi.org/10.1103/PhysRevLett.98.066401

 J. VandeVondele, M. Krack, F. Mohamed, M. Parrinello, T. Chassaing, J. Hutter.
 Comput. Phys. Commun. 167, 103-128 (2005).
 QUICKSTEP: Fast and accurate density functional calculations using a mixed 
 Gaussian and plane waves approach.
 https://doi.org/10.1016/j.cpc.2004.12.014

 M. Krack.
 Theor. Chem. Acc. 114, 145-152 (2005).
 Pseudopotentials for H to Kr optimized for gradient-corrected 
 exchange-correlation functionals.
 https://doi.org/10.1007/s00214-005-0655-y

 M. Frigo, S. G. Johnson.
 Proc. IEEE 93, 216-231 (2005).
 The design and implementation of FFTW3.
 https://doi.org/10.1109/JPROC.2004.840301

 J. Kolafa.
 J. Comput. Chem. 25, 335-342 (2004).
 Time-reversible always stable predictor-corrector method for molecular dynamics 
 of polarizable molecules.
 https://doi.org/10.1002/jcc.10385

 J. VandeVondele, J. Hutter.
 J. Chem. Phys. 118, 4365-4369 (2003).
 An efficient orbital transformation method for electronic structure 
 calculations.
 https://doi.org/10.1063/1.1543154

 C. Hartwigsen, S. Goedecker, J. Hutter.
 Phys. Rev. B 58, 3641-3662 (1998).
 Relativistic separable dual-space Gaussian pseudopotentials from H to Rn.
 https://doi.org/10.1103/PhysRevB.58.3641

 S. L. Dudarev, G. A. Botton, S. Y. Savrasov, C. J. Humphreys, A. P. Sutton.
 Phys. Rev. B 57, 1505-1509 (1998).
 Electron-energy-loss spectra and the structural stability of nickel oxide: An 
 LSDA+U study.
 https://doi.org/10.1103/PhysRevB.57.1505

 G. Lippert, J. Hutter, M. Parrinello.
 Mol. Phys. 92, 477-487 (1997).
 A hybrid Gaussian and plane wave density functional scheme.
 https://doi.org/10.1080/002689797170220

 S. L. Dudarev, D. N. Manh, A. P. Sutton.
 Philos. Mag. B 75, 613-628 (1997).
 Effect of Mott-Hubbard correlations on the electronic structure and structural 
 stability of uranium dioxide.
 https://doi.org/10.1080/13642819708202343

 S. Goedecker, M. Teter, J. Hutter.
 Phys. Rev. B 54, 1703-1710 (1996).
 Separable dual-space Gaussian pseudopotentials.
 https://doi.org/10.1103/PhysRevB.54.1703

 J. P. Perdew, K. Burke, M. Ernzerhof.
 Phys. Rev. Lett. 77, 3865-3868 (1996).
 Generalized gradient approximation made simple.
 https://doi.org/10.1103/PhysRevLett.77.3865


 -------------------------------------------------------------------------------
 -                                                                             -
 -                                T I M I N G                                  -
 -                                                                             -
 -------------------------------------------------------------------------------
 SUBROUTINE                       CALLS  ASD         SELF TIME        TOTAL TIME
                                MAXIMUM       AVERAGE  MAXIMUM  AVERAGE  MAXIMUM
 CP2K                                 1  1.0    0.067    0.078  807.657  807.663
 cp_geo_opt                           1  2.0    0.003    0.006  806.842  806.846
 geoopt_bfgs                          1  3.0    0.032    0.040  806.839  806.843
 cp_eval_at                          13  4.0    0.008    0.011  805.681  805.686
 qs_energies                         13  5.9    0.008    0.011  774.230  774.244
 qs_forces                           12  5.0    0.014    0.018  769.130  769.135
 scf_env_do_scf                      13  6.9    0.006    0.010  634.812  634.816
 scf_env_do_scf_inner_loop          445  8.0    0.050    4.095  613.668  614.187
 rebuild_ks_matrix                  457  9.9    0.004    0.004  327.729  328.534
 qs_ks_build_kohn_sham_matrix       457 10.9    0.094    0.108  327.725  328.531
 qs_ks_update_qs_env                461  9.0    0.007    0.014  318.581  319.399
 sum_up_and_integrate               457 11.9    0.021    0.032  207.112  207.201
 integrate_v_rspace                 914 12.9    0.037    0.053  206.556  206.845
 qs_rho_update_rho_low              458  9.0    0.007    0.008  187.762  187.817
 calculate_rho_elec                 916 10.0    0.341    0.389  187.755  187.811
 dbcsr_multiply_generic           43707 12.7    1.531    1.595  182.458  187.793
 grid_integrate_task_list           914 13.9  150.467  155.590  150.467  155.590
 grid_collocate_task_list           916 11.0  136.252  141.855  136.252  141.855
 multiply_cannon                  43707 13.7    8.139    8.613  122.044  139.386
 qs_scf_new_mos                     445  9.0    0.003    0.004  122.184  123.318
 qs_scf_loop_do_ot                  445 10.0    0.004    0.006  122.181  123.314
 scf_post_calculation_gpw            13  6.9    0.005    0.008  121.006  121.011
 multiply_cannon_loop             43707 14.7    3.080    3.233  102.922  118.481
 fft_wrap_pw1pw2                  15364 14.2    0.298    0.356  101.234  113.578
 ot_scf_mini                        445 11.0    0.018    0.023  112.450  113.261
 fft_wrap_pw1pw2_300               9718 15.7    3.853    4.171   94.055  106.837
 qs_vxc_create                      457 11.9    0.012    0.016   96.272   96.972
 xc_vxc_pw_create                   457 12.9    1.752    2.246   96.259   96.963
 fft3d_ps                         15364 16.2   30.386   33.389   79.662   94.196
 ot_mini                           2221 10.3    0.027    0.031   91.203   92.206
 xc_pw_derive                      5484 14.9    0.051    0.059   65.049   76.210
 mp_waitall_1                   5150180 16.8   53.544   75.872   53.544   75.872
 multiply_cannon_multrec         699312 15.7   43.930   72.247   44.082   72.396
 make_lumo_gpw                       13  7.9    0.002    0.003   68.727   68.731
 ot_eigensolver                      26  8.9    0.029    0.031   68.493   68.495
 qs_ot_get_derivative              1791 11.9    0.013    0.015   65.666   66.248
 multiply_cannon_metrocomm3      699312 15.7    1.679    1.709   38.772   64.970
 mp_alltoall_z22v                 15364 18.2   40.916   63.664   40.916   63.664
 xc_rho_set_and_dset_create         457 13.9    1.570    2.492   49.937   52.750
 density_rs2pw                      916 11.0    0.048    0.056   46.613   52.040
 xc_pw_divergence                   914 13.9    0.022    0.025   43.043   51.860
 potential_pw2rs                    914 13.9    0.068    0.077   46.422   46.727
 make_m2s                         87414 13.7    1.180    1.299   38.537   40.734
 write_available_results             13  7.9    0.003    0.004   39.795   39.826
 write_mo_free_results               13  8.9    1.931    1.978   39.317   39.350
 qs_ot_get_p                       2752 10.6    0.017    0.020   37.026   39.128
 yz_to_x                           5605 17.3    2.369    3.326   23.385   38.427
 transfer_pw2rs                    3694 14.8    0.052    0.059   34.779   34.938
 transfer_rs2pw                    3898 11.9    0.061    0.083   28.759   33.294
 make_images                      87414 14.7    2.289    2.492   31.302   33.146
 mp_waitany                       91744 15.3   23.577   31.284   23.577   31.284
 x_to_yz                           5995 17.6    3.982    5.268   23.616   30.102
 transfer_pw2rs_300                 952 15.7   12.111   12.677   24.401   25.481
 transfer_rs2pw_300                 994 12.8    7.390    9.448   19.052   23.860
 qs_ot_get_derivative_taylor        720 13.7    0.017    0.019   22.934   23.491
 apply_preconditioner_dbcsr        1877 12.9    0.005    0.006   21.065   23.188
 apply_single                      1877 13.9    0.005    0.006   21.061   23.184
 mp_sum_l                        207286 13.8   13.237   22.249   13.237   22.249
 multiply_cannon_metrocomm4      655605 15.7    1.631    1.667    7.833   21.723
 qs_ot_p2m_diag                    1951 11.2    0.151    0.192   21.160   21.269
 mp_irecv_dv                    1416073 16.7    6.531   21.112    6.531   21.112
 mp_sum_d                         36642 14.0   14.673   20.822   14.673   20.822
 qs_ot_get_derivative_diag         1071 12.4    0.020    0.021   20.758   20.816
 init_scf_loop                       16  7.9    0.004    0.006   20.654   20.664
 hirshfeld_integration               26  9.9   18.574   19.484   20.152   20.162
 mp_alltoall_d11v                 35367 15.0   13.926   18.440   13.926   18.440
 ot_diis_step                       445 13.0    0.043    0.048   18.001   18.005
 build_core_hamiltonian_matrix_      12  6.0    0.001    0.001   14.550   17.625
 xc_functional_eval                 457 14.9    0.008    0.011   14.637   16.826
 pbe_lsd_eval                       457 15.9   14.629   16.819   14.629   16.819
 -------------------------------------------------------------------------------

 The number of warnings for this run is : 3
 
 -------------------------------------------------------------------------------
  **** **** ******  **  PROGRAM ENDED AT                 2025-06-19 09:42:41.228
 ***** ** ***  *** **   PROGRAM RAN ON                                 nid006738
 **    ****   ******    PROGRAM RAN BY                                    cahart
 ***** **    ** ** **   PROGRAM PROCESS ID                                 23351
  **** **  *******  **  PROGRAM STOPPED IN /mnt/lustre/a2fs-work2/work/e05/e05/c
                                           ahart/postdoc2/work/group/tio2/anatas
                                           e/cell-441/geo-opt/mp-390/hole/from-n
                                           eutral/pbe-u-o/u-2.2
