     192
 i =        6, E =     -5783.1331892330
Ti         0.0001656341        0.0002394606       -0.0003452867
Ti         0.0000258748       -0.0000904509        0.0002945816
Ti         0.0001538852        0.0003079177        0.0005220933
Ti        -0.0000714365        0.0001842354       -0.0006237496
Ti         0.0002548075       -0.0002354481       -0.0002665733
Ti        -0.0000005309       -0.0000527280        0.0003978686
Ti        -0.0000985924       -0.0000441316        0.0004845283
Ti        -0.0000707057        0.0000484035       -0.0003332558
Ti        -0.0001271347       -0.0000247754       -0.0004616130
Ti         0.0000304453       -0.0001747691        0.0005567216
Ti         0.0001162006        0.0000548606        0.0001168647
Ti         0.0001123531       -0.0001766293       -0.0001568353
Ti         0.0002480550       -0.0001689934       -0.0002457109
Ti        -0.0000875408        0.0000413722        0.0001935666
Ti        -0.0002693573        0.0000670238       -0.0004222953
Ti        -0.0000640821       -0.0000287630        0.0005747956
Ti         0.0000098561        0.0001019688        0.0004073378
Ti         0.0002731995       -0.0003508958       -0.0003614418
Ti         0.0000324604        0.0000802590        0.0004228825
Ti        -0.0001590161       -0.0000065044       -0.0004046190
Ti         0.0001414580       -0.0000570722       -0.0002532973
Ti         0.0000215982       -0.0001727712        0.0003513042
Ti        -0.0000858179        0.0002552451        0.0004642297
Ti        -0.0000745952        0.0002034988       -0.0004455425
Ti        -0.0000302391        0.0000216789       -0.0005381884
Ti         0.0001636948        0.0001939466        0.0003788398
Ti         0.0000149463       -0.0001016475        0.0001748613
Ti        -0.0000485010        0.0002335446       -0.0003433478
Ti         0.0000987413        0.0001121787       -0.0003077650
Ti        -0.0000641855       -0.0002574133        0.0002876069
Ti         0.0000301939        0.0003372301        0.0001842752
Ti        -0.0000053926        0.0000825521       -0.0002888278
Ti        -0.0001421371        0.0001090766       -0.0004256993
Ti         0.0000627915        0.0001085549        0.0003516297
Ti         0.0000777549       -0.0000212715        0.0002209025
Ti         0.0000070431        0.0000804756       -0.0003189703
Ti         0.0000211170        0.0001521358        0.0002421820
Ti         0.0000093056        0.0000795100       -0.0003296265
Ti         0.0001227509        0.0000753755       -0.0003883303
Ti        -0.0000918651       -0.0000166798        0.0003022215
Ti         0.0001249553       -0.0002109186        0.0002079829
Ti         0.0000099367        0.0001125174       -0.0002315003
Ti        -0.0001231418        0.0001338378       -0.0003623444
Ti         0.0000569804        0.0002767554        0.0002769265
Ti         0.0001855391       -0.0003223994       -0.0001794778
Ti        -0.0000859619       -0.0000056751        0.0002646032
Ti        -0.0001516493        0.0000515421        0.0003668331
Ti        -0.0001479142       -0.0000114855       -0.0002718165
Ti        -0.0002038494       -0.0000941365       -0.0003698414
Ti        -0.0000362362       -0.0000697489        0.0004539305
Ti        -0.0000117947        0.0000900217        0.0002929272
Ti         0.0000294278       -0.0002818775       -0.0003761782
Ti        -0.0000908625       -0.0000671814        0.0003701270
Ti        -0.0000682947       -0.0000783805       -0.0003056890
Ti         0.0000736121       -0.0000128844        0.0001859624
Ti         0.0001085874       -0.0003999443       -0.0001008603
Ti        -0.0001609396       -0.0000174753       -0.0003275380
Ti        -0.0002173534       -0.0001588362        0.0004731292
Ti         0.0000275783       -0.0001793475       -0.0002651461
Ti         0.0000243234       -0.0000584986        0.0002907277
Ti        -0.0000473704       -0.0000526483       -0.0002487488
Ti         0.0000008950       -0.0001139340        0.0002421127
Ti        -0.0000649360        0.0001582842        0.0003598037
Ti        -0.0000573413       -0.0000036960       -0.0004090884
O         0.0000132127       -0.0000892410        0.0002043328
O         0.0000739436       -0.0002404292       -0.0001028304
O        -0.0000142809        0.0001398405       -0.0001458422
O        -0.0003013095        0.0000866782        0.0004833045
O         0.0001227393        0.0000797768        0.0002192539
O         0.0000458270       -0.0001088015       -0.0004999566
O        -0.0001109222        0.0000297502       -0.0002544084
O         0.0001279418        0.0000959257        0.0001439517
O         0.0000395922       -0.0002472642        0.0003320166
O         0.0001053672       -0.0000547607       -0.0002173752
O         0.0000736214        0.0000463289       -0.0001460315
O        -0.0001362336        0.0000222846        0.0003761760
O         0.0000195338       -0.0000665036        0.0001297727
O        -0.0000447155        0.0001128779       -0.0003921324
O         0.0000451768        0.0000704373       -0.0001784261
O         0.0002556641       -0.0000385656       -0.0000216483
O        -0.0000024075       -0.0000072760        0.0000020524
O         0.0000302632        0.0000856193       -0.0001207760
O        -0.0000918887       -0.0000238819        0.0003458093
O        -0.0001635861        0.0000285532       -0.0001654632
O         0.0000820888       -0.0000546753       -0.0001423129
O         0.0000354657       -0.0000006534        0.0003057640
O        -0.0000030582        0.0001717948       -0.0004590473
O         0.0000534859        0.0001823267        0.0001299342
O         0.0000481869       -0.0002307506        0.0002937372
O         0.0000677298        0.0000923845       -0.0000738974
O        -0.0001060697        0.0001302073       -0.0000095180
O         0.0000085083        0.0000527010        0.0004241653
O         0.0000849337        0.0000157117        0.0000966828
O         0.0000339551        0.0003253255       -0.0004323033
O         0.0001840480        0.0000340369       -0.0002441174
O         0.0001075784        0.0000547912        0.0000603280
O         0.0001093144       -0.0000046643        0.0002678117
O        -0.0000217454       -0.0002123921       -0.0000876893
O         0.0000212270        0.0000349988       -0.0001022640
O        -0.0002724420       -0.0001351912        0.0003486384
O        -0.0000671060        0.0000584785        0.0001418967
O         0.0000328618       -0.0001347028       -0.0004478611
O        -0.0001478833       -0.0000399379       -0.0002964502
O         0.0001097324       -0.0001774901        0.0001114949
O        -0.0001124937       -0.0000393750       -0.0003851385
O        -0.0000740504        0.0000686159        0.0001388938
O         0.0000709861       -0.0001793038       -0.0000798583
O        -0.0000741233       -0.0000995164        0.0002164732
O        -0.0002838217        0.0000932315        0.0003197906
O        -0.0000329402       -0.0000646153       -0.0001946373
O         0.0001183719        0.0000578833        0.0000620295
O        -0.0001006376       -0.0000104107       -0.0002105613
O         0.0000978192       -0.0002545489        0.0002731034
O        -0.0000760462       -0.0000586160       -0.0000641765
O         0.0001051064        0.0000900383        0.0000518431
O        -0.0001483420       -0.0000314914        0.0003703403
O         0.0000034253       -0.0000625115        0.0000918383
O         0.0000939047        0.0000556236       -0.0004013616
O         0.0000562577       -0.0000391594       -0.0002771597
O         0.0002494883       -0.0000582121        0.0001573542
O        -0.0000527642        0.0001132278       -0.0003098933
O         0.0000004312       -0.0000943066        0.0000441530
O        -0.0000060746       -0.0000633395        0.0001326064
O        -0.0000174368       -0.0000831536       -0.0002630465
O         0.0000596045       -0.0000677275       -0.0000860896
O        -0.0000678446       -0.0002804930        0.0002358925
O        -0.0000981550       -0.0000510241        0.0003045221
O        -0.0001589051        0.0001032613        0.0000492170
O         0.0000588919       -0.0000221825        0.0000019355
O        -0.0000685007       -0.0000014324        0.0002317009
O        -0.0001047834        0.0001236959        0.0002956696
O        -0.0002109529        0.0000338747       -0.0000354377
O        -0.0000583137        0.0001104030       -0.0004072273
O         0.0000028158        0.0001948895        0.0000541844
O         0.0000073742        0.0001160101        0.0001070998
O         0.0000126443       -0.0000556036       -0.0002417194
O        -0.0000241008        0.0002042193        0.0000555470
O         0.0000750419        0.0001185316       -0.0004259674
O         0.0000944348       -0.0000822569       -0.0002692862
O         0.0002178393        0.0001153336        0.0000714868
O         0.0000874842        0.0000183734        0.0002570592
O        -0.0000251139       -0.0000472113       -0.0000324941
O         0.0001266156        0.0000307897        0.0000332151
O        -0.0001451242        0.0001373146        0.0003156688
O         0.0000955358       -0.0001547122        0.0003277110
O        -0.0000309377        0.0000650550       -0.0000768889
O        -0.0000617257        0.0000490980       -0.0000113562
O         0.0000035026       -0.0001014017        0.0003052176
O        -0.0000850719        0.0000619305        0.0000747960
O         0.0000128145        0.0003221297       -0.0004139928
O         0.0002009264       -0.0000342581       -0.0002426507
O         0.0000861590       -0.0001361037        0.0000048103
O        -0.0001027907        0.0002850608       -0.0003834582
O        -0.0000299365        0.0000370380        0.0000620486
O         0.0000966610        0.0000952772       -0.0000563052
O        -0.0000545653       -0.0001327780        0.0003127076
O         0.0000721904        0.0000645904        0.0003120945
O        -0.0000749080       -0.0000624237       -0.0000589162
O         0.0000821330        0.0000154860       -0.0000338286
O         0.0001650342       -0.0000102186       -0.0002573836
O         0.0000419443       -0.0000658909        0.0002550545
O        -0.0000830606       -0.0001742255       -0.0000350926
O         0.0000443360       -0.0000179491       -0.0000713396
O        -0.0002697374        0.0000543644        0.0003929022
O        -0.0000730793        0.0000578773        0.0001673394
O        -0.0000517049       -0.0000766646       -0.0004552952
O        -0.0001244670       -0.0001093991       -0.0002543372
O         0.0001266508       -0.0000658150        0.0001303548
O         0.0000056982       -0.0002620222        0.0003415494
O        -0.0000564313       -0.0000678196       -0.0001635715
O         0.0001269381       -0.0001177661       -0.0000541906
O        -0.0000992972       -0.0000154399        0.0003137751
O        -0.0001166623       -0.0000922136        0.0001006662
O        -0.0000717201        0.0000371353       -0.0003669187
O         0.0000556473       -0.0000736952       -0.0001725580
O         0.0001955711       -0.0000928341       -0.0000413213
O        -0.0000277863       -0.0001264377       -0.0000268506
O        -0.0000570856       -0.0000619246       -0.0001473374
O        -0.0001270614        0.0000333732        0.0002849783
O        -0.0001979478       -0.0000921317       -0.0001158294
O        -0.0000396169       -0.0000537706       -0.0001235302
O         0.0000139852        0.0000575837        0.0003769998
O        -0.0001133665        0.0001576030       -0.0004076606
O        -0.0001283475        0.0001877570        0.0001156942
O        -0.0000000321       -0.0001848455        0.0002998952
O        -0.0000765926        0.0000470738       -0.0000500353
O        -0.0000915853       -0.0000147154        0.0000066724
O         0.0000612997        0.0000703033        0.0003847215
O        -0.0000696844        0.0000062433        0.0000929135
O        -0.0000626853        0.0002652907       -0.0004494129
O         0.0001880133       -0.0001224510       -0.0002642193
O         0.0000826456       -0.0000551507        0.0000142593
     192
 i =        7, E =     -5783.1333656841
Ti         0.0003787621        0.0000804027       -0.0003847701
Ti         0.0000254088        0.0002317516        0.0002385989
Ti         0.0000637284        0.0001653508        0.0009175321
Ti        -0.0001420346       -0.0001387488       -0.0007162466
Ti         0.0001342043        0.0000460603       -0.0003435129
Ti         0.0001275144       -0.0004162042        0.0004807263
Ti        -0.0000642408        0.0003926981        0.0006759069
Ti        -0.0000088546        0.0002524643       -0.0008052037
Ti         0.0000169416        0.0001837378       -0.0008026606
Ti         0.0001966661        0.0001066698        0.0009067434
Ti         0.0001850802       -0.0001330033        0.0001591638
Ti        -0.0001062098        0.0002178209       -0.0002754215
Ti         0.0001756800        0.0001633890       -0.0002455684
Ti        -0.0000617255       -0.0002028779        0.0003379210
Ti        -0.0000587083        0.0003009944       -0.0010552419
Ti         0.0001813097        0.0003040725        0.0005922561
Ti         0.0001127660       -0.0000645598        0.0002463966
Ti         0.0003181791       -0.0002135061       -0.0004007683
Ti         0.0002155822        0.0003772137        0.0006961840
Ti         0.0000682773        0.0001557295       -0.0010437506
Ti         0.0002755266       -0.0004549806       -0.0001842148
Ti        -0.0001060707        0.0001854125        0.0002582750
Ti        -0.0002637173        0.0000167684        0.0007448409
Ti        -0.0001981298       -0.0000270969       -0.0007461486
Ti        -0.0000762277       -0.0001780355       -0.0006846043
Ti        -0.0000159636       -0.0001007483        0.0011097453
Ti        -0.0000902515        0.0002031932        0.0001756906
Ti        -0.0000518530        0.0000013129       -0.0000911266
Ti         0.0002514223       -0.0001714623       -0.0001382121
Ti        -0.0002276441        0.0000386085        0.0002921840
Ti        -0.0001630749        0.0001031217        0.0006832011
Ti        -0.0001748391       -0.0001919199       -0.0005008776
Ti        -0.0002631589       -0.0001651122       -0.0005144737
Ti         0.0000019400       -0.0001067370        0.0007657835
Ti        -0.0000356369        0.0002342789        0.0001400929
Ti        -0.0000750713       -0.0003379134       -0.0001399148
Ti        -0.0002575017       -0.0001745150        0.0009970508
Ti        -0.0000881098       -0.0001268169       -0.0004709889
Ti         0.0003152430       -0.0002690246       -0.0002679278
Ti        -0.0001696857        0.0003145601        0.0001300445
Ti         0.0000480979        0.0000754471        0.0001933151
Ti         0.0000080043       -0.0000908617       -0.0002042810
Ti        -0.0001768133       -0.0001851531       -0.0008637465
Ti        -0.0000727914       -0.0000223493        0.0007338782
Ti         0.0001727242       -0.0001119836       -0.0002287506
Ti         0.0000003181       -0.0002381951        0.0001482758
Ti         0.0000143223        0.0003234838        0.0004629181
Ti        -0.0000838776        0.0001191575       -0.0009565072
Ti        -0.0000954791        0.0001070230       -0.0008809717
Ti         0.0001186052        0.0002020275        0.0006398708
Ti         0.0000555640       -0.0001391321        0.0001961840
Ti        -0.0002019421       -0.0000937865       -0.0002034152
Ti         0.0000358169        0.0001851412        0.0007973633
Ti         0.0000349245        0.0000728872       -0.0006952656
Ti         0.0001102531       -0.0002377074        0.0001877521
Ti        -0.0001109388       -0.0002958775       -0.0001433023
Ti        -0.0000319659        0.0001716880       -0.0006940262
Ti        -0.0000110282        0.0001182873        0.0005806602
Ti        -0.0000499208        0.0000756087       -0.0002311679
Ti         0.0001048464       -0.0003199406        0.0002483344
Ti         0.0000009680       -0.0003575558       -0.0000943691
Ti        -0.0000303043        0.0001944129        0.0000970318
Ti        -0.0001298004       -0.0000650839        0.0007319383
Ti        -0.0001751525       -0.0002335390       -0.0005469721
O        -0.0000700984       -0.0000642198       -0.0000643021
O        -0.0000591589       -0.0000143343       -0.0000084385
O         0.0001250276       -0.0000953195       -0.0003440231
O        -0.0001669828       -0.0000802067        0.0003420359
O        -0.0000658973        0.0001059990        0.0002278218
O        -0.0000143679        0.0000360284       -0.0004458956
O        -0.0001604504       -0.0000729609       -0.0002038820
O         0.0000889707        0.0000040545        0.0003460216
O        -0.0000396807       -0.0003006880       -0.0000430921
O        -0.0001316436        0.0000453448       -0.0001028833
O        -0.0000112877       -0.0000724003       -0.0002716801
O        -0.0001354620       -0.0000500905        0.0002377502
O         0.0000097808       -0.0001746460        0.0004198420
O         0.0000236527       -0.0000654683       -0.0003424669
O         0.0000677649       -0.0000257229       -0.0000127091
O         0.0000621533        0.0000247507        0.0002903754
O         0.0000097337        0.0000013026        0.0002891075
O        -0.0000030366       -0.0000751294       -0.0002025071
O        -0.0001737793       -0.0000373265        0.0004785024
O        -0.0001764562       -0.0000655524       -0.0003013183
O        -0.0000899681        0.0000161462       -0.0001526648
O        -0.0000328106        0.0000057075       -0.0000087464
O        -0.0000038441        0.0001241728       -0.0002095433
O         0.0000040972       -0.0000033077        0.0003962476
O        -0.0000707971       -0.0001231432       -0.0002305066
O        -0.0000578766       -0.0000562344       -0.0000462796
O        -0.0000000658       -0.0000677458       -0.0003651631
O         0.0001685045       -0.0000465486        0.0002521366
O        -0.0000136544        0.0000343982        0.0003698028
O        -0.0000187603        0.0003222517       -0.0004356280
O         0.0000981461       -0.0000684623       -0.0001079737
O         0.0001189566        0.0000191921        0.0003322089
O        -0.0000583414       -0.0001342486        0.0000435421
O        -0.0000537971        0.0000288509       -0.0000752141
O        -0.0000294167       -0.0000361267       -0.0002081789
O        -0.0003211862        0.0001056193        0.0004559745
O         0.0000957524       -0.0000194555        0.0003877319
O        -0.0000273321       -0.0000475428       -0.0002940769
O        -0.0000379484       -0.0000151474       -0.0002130106
O        -0.0000146010        0.0001093896        0.0003480350
O         0.0001261878       -0.0001533624       -0.0002901065
O         0.0000016089       -0.0000687063        0.0002822617
O        -0.0000310702        0.0000420583       -0.0000095348
O         0.0000655514       -0.0001142242       -0.0000042692
O        -0.0002280442       -0.0000509155        0.0003650687
O        -0.0000205857        0.0000045089       -0.0003636049
O         0.0000713652       -0.0000236835        0.0001876603
O        -0.0001094540        0.0000411281       -0.0002745533
O        -0.0000823030       -0.0001192258       -0.0001395992
O         0.0000339917       -0.0001086980        0.0000560229
O         0.0001194520       -0.0000050684       -0.0001819290
O        -0.0000123637        0.0000445580        0.0001389370
O         0.0000364202       -0.0000099305        0.0002823923
O        -0.0000480666        0.0001066263       -0.0003738171
O        -0.0000093800       -0.0000396982       -0.0000796875
O         0.0000978638        0.0000939931        0.0003336217
O         0.0001058505        0.0000970769       -0.0004932719
O        -0.0000103258        0.0000174242        0.0002243176
O         0.0000613933        0.0000873993        0.0003368393
O        -0.0000589561       -0.0000689111       -0.0002122698
O         0.0000179165       -0.0000597327        0.0000564890
O         0.0000193634       -0.0001984197       -0.0001437542
O        -0.0000130259        0.0000868200        0.0004083865
O         0.0000228571       -0.0000043811       -0.0002864658
O         0.0000117179       -0.0000409327       -0.0000452598
O         0.0000078163        0.0000479587       -0.0001802113
O         0.0000126099       -0.0000527256        0.0002465336
O         0.0000073470       -0.0000112828       -0.0003776899
O         0.0000768232        0.0002302595       -0.0002773457
O        -0.0000186182        0.0001140855        0.0001564099
O         0.0000127153       -0.0000073262        0.0002304556
O        -0.0000428484        0.0000109377       -0.0003002945
O         0.0000516831        0.0001612850        0.0003044144
O        -0.0000339145        0.0002033686       -0.0002944228
O         0.0000016818        0.0000187392       -0.0000768889
O         0.0001064664        0.0000077293        0.0001973257
O        -0.0000983778        0.0000284883       -0.0000214916
O         0.0000057839       -0.0000245413       -0.0000583998
O         0.0001041738       -0.0000188338       -0.0003564329
O        -0.0000383595       -0.0000315508        0.0001367075
O        -0.0000403197       -0.0001368655       -0.0000755646
O        -0.0000337513        0.0000981457       -0.0000606439
O        -0.0000819597       -0.0000219677       -0.0002225894
O         0.0000348024        0.0000648728        0.0003268092
O         0.0000753000       -0.0001026599        0.0004912597
O        -0.0000206717        0.0000693008       -0.0001967239
O         0.0000888051       -0.0000242826       -0.0000862358
O         0.0000857267        0.0000677564        0.0003172404
O         0.0001066873        0.0001931978       -0.0003030051
O         0.0000061676       -0.0000411773        0.0003733749
O        -0.0000209870        0.0000684775       -0.0000688900
O         0.0000336101       -0.0001590703       -0.0001683325
O        -0.0000397730       -0.0000472994        0.0002416373
O        -0.0001373200        0.0000031647       -0.0003271232
O         0.0000405729       -0.0000119335        0.0002500327
O         0.0001727349        0.0000370697       -0.0001184248
O        -0.0000208739       -0.0000061390       -0.0000649805
O         0.0000369520       -0.0001000909        0.0000713256
O         0.0001158515       -0.0000198783       -0.0003502306
O        -0.0000923908        0.0000665217        0.0003444619
O         0.0000363241        0.0001167520        0.0002335610
O         0.0000219422        0.0000335117       -0.0004363157
O        -0.0001035026        0.0000168149       -0.0002914968
O         0.0000747511        0.0000213298        0.0002170512
O         0.0000152992       -0.0001981610        0.0000077896
O        -0.0000141177       -0.0000039613        0.0000359753
O        -0.0000654753        0.0000015824       -0.0002164697
O        -0.0001710280        0.0000306372        0.0002341265
O         0.0000627597       -0.0001233654        0.0003537013
O         0.0000442891       -0.0000732597       -0.0002882647
O         0.0000316360        0.0000428195       -0.0000826482
O         0.0000481416       -0.0000183890        0.0001588551
O        -0.0000207273       -0.0000134387        0.0002122424
O        -0.0000061178        0.0000518661       -0.0002062223
O        -0.0001331086        0.0000668163        0.0004007356
O        -0.0000717296       -0.0000148015       -0.0003000221
O        -0.0000235751        0.0000451477       -0.0001045513
O         0.0000046427       -0.0000563788        0.0000486940
O        -0.0000002266        0.0000643065       -0.0001721821
O         0.0000685603       -0.0000612497        0.0003687221
O        -0.0000327805       -0.0000899265       -0.0001450932
O         0.0000363858        0.0000069275        0.0000244183
O        -0.0000009381       -0.0000048341       -0.0003179742
O         0.0001200664        0.0000604289        0.0002054961
O         0.0000347434        0.0000459814        0.0002861684
O         0.0000225359        0.0002524292       -0.0003519365
O         0.0000387146        0.0000166705       -0.0001045460
O         0.0001182703        0.0000212449        0.0002380135
     192
 i =        8, E =     -5783.1339795363
Ti         0.0002574998       -0.0001823400        0.0015832093
Ti        -0.0002018216        0.0003852163       -0.0012615556
Ti        -0.0003804029       -0.0006387381        0.0018139210
Ti        -0.0001385640       -0.0002067457       -0.0013708935
Ti        -0.0000879544        0.0007482689        0.0009069957
Ti         0.0002228631       -0.0004266784       -0.0012989450
Ti         0.0003439400        0.0008124327        0.0011701551
Ti         0.0001278932        0.0003646170       -0.0016522228
Ti         0.0001105835        0.0004064754       -0.0012851855
Ti         0.0001525381        0.0009116934        0.0015754772
Ti        -0.0000257444       -0.0004079485       -0.0009260552
Ti        -0.0004474795        0.0006061455        0.0010806856
Ti         0.0000625046        0.0007702695        0.0010053797
Ti         0.0001248207       -0.0004154047       -0.0012813588
Ti         0.0001494095        0.0003789135       -0.0020768668
Ti         0.0001576423        0.0006210255        0.0009096813
Ti         0.0000663263       -0.0005239785       -0.0012064439
Ti        -0.0000933030       -0.0000674218        0.0011059961
Ti         0.0002663801        0.0004827159        0.0009666356
Ti         0.0002511897        0.0000987190       -0.0018781969
Ti         0.0003169325       -0.0008172406        0.0010867000
Ti        -0.0002092286        0.0005399686       -0.0011275688
Ti         0.0000165162       -0.0006581410        0.0011357176
Ti        -0.0002236553       -0.0003036735       -0.0011900079
Ti        -0.0001817526       -0.0003308185       -0.0005764272
Ti        -0.0003045139       -0.0004040252        0.0016720374
Ti        -0.0000613277        0.0004130228       -0.0012514170
Ti         0.0001969877       -0.0004385243        0.0015828399
Ti         0.0002456664       -0.0003288054        0.0012800196
Ti        -0.0002678533        0.0005804869       -0.0013587381
Ti        -0.0001465218       -0.0008800822        0.0015000570
Ti        -0.0001405168       -0.0003265839       -0.0010830452
Ti        -0.0002163225       -0.0002532453       -0.0009648927
Ti        -0.0004280891       -0.0004796461        0.0018179946
Ti        -0.0002464238        0.0002195060       -0.0009595769
Ti        -0.0001337362       -0.0009545797        0.0014960263
Ti        -0.0002259713       -0.0005339484        0.0019467090
Ti        -0.0002285692       -0.0002210059       -0.0007944154
Ti         0.0003943550       -0.0009076021        0.0013934347
Ti        -0.0001899580        0.0001957125       -0.0012533909
Ti        -0.0002721558        0.0004570474       -0.0009484576
Ti         0.0000575873       -0.0003274557        0.0013825324
Ti        -0.0003014338       -0.0004520637       -0.0014024564
Ti        -0.0004005059       -0.0006890534        0.0012586617
Ti        -0.0001465241        0.0002500981        0.0006848095
Ti         0.0000175443       -0.0003658292       -0.0011920474
Ti         0.0004141167        0.0004575473        0.0006387756
Ti         0.0000760102        0.0001856089       -0.0015636262
Ti         0.0000581779        0.0002868218       -0.0012052743
Ti         0.0000364016        0.0007848504        0.0007707893
Ti         0.0002256980       -0.0004777043       -0.0011660063
Ti        -0.0000890096        0.0003151540        0.0010851368
Ti         0.0003908096        0.0008751595        0.0009765272
Ti         0.0001222219        0.0001947054       -0.0010397039
Ti         0.0000696506       -0.0003037856       -0.0008524257
Ti        -0.0002453333        0.0004288210        0.0006732967
Ti         0.0002279505        0.0002753975       -0.0012507806
Ti         0.0006476241        0.0007310938        0.0007129391
Ti        -0.0001343026        0.0004430556        0.0009575287
Ti         0.0001566497       -0.0003626125       -0.0012484009
Ti         0.0001660056       -0.0005581357        0.0010821269
Ti        -0.0000199728        0.0003902250       -0.0010253223
Ti        -0.0000134348       -0.0003059665        0.0010946160
Ti        -0.0001259182       -0.0001876268       -0.0006808967
O        -0.0001208689        0.0001330401       -0.0015191750
O        -0.0003202896        0.0003725619        0.0005621097
O         0.0004064141       -0.0004711738       -0.0003765293
O         0.0002217580       -0.0005065157       -0.0004133194
O        -0.0003159804        0.0000181588        0.0010167100
O        -0.0000384120        0.0001449849       -0.0006452709
O         0.0000292592        0.0000429492        0.0006972546
O         0.0001148407       -0.0002698347        0.0001698056
O        -0.0001900653       -0.0000050483       -0.0015145717
O        -0.0005259777       -0.0000353067        0.0006668025
O        -0.0002145880       -0.0001939789       -0.0000707366
O        -0.0001514474       -0.0001838019       -0.0003002941
O         0.0001216176       -0.0000155060        0.0011980729
O         0.0003551475       -0.0004325587       -0.0006258989
O         0.0000360915       -0.0001097980        0.0008040072
O        -0.0003826823        0.0002055834        0.0003592273
O         0.0000625916        0.0000465262        0.0004347540
O        -0.0002072445       -0.0001343228        0.0006277035
O        -0.0000798701       -0.0000308432        0.0000344180
O         0.0002162977       -0.0000944000       -0.0002911118
O        -0.0003927166        0.0001292004        0.0002846326
O        -0.0001675292       -0.0000522288       -0.0012681489