     192
 i =        6, E =     -5783.1331892330
Ti         0.0006137691        0.0018716937       -0.0005052123
Ti         1.8887897123        1.8882264594        4.8080920194
Ti         0.0012736885        1.8892789599        2.4029124140
Ti         1.8889560434        0.0015819415        7.2118674639
Ti         0.0013658393        3.7758795161        0.0023611273
Ti         1.8887596029       13.2381807858        4.8061623645
Ti        11.3496255346        1.8880099860        2.4045456948
Ti         5.6693667133        0.0006840739        7.2161737838
Ti         1.8884464237        3.7762933689        7.2091057815
Ti         0.0007325685       13.2368927591        2.4047247424
Ti         5.6696879001        1.8892253107        4.8040273225
Ti        11.3501132427        0.0001044508       -0.0020801528
Ti         3.7770159455        0.0004566077       -0.0035959579
Ti        13.2375455676        1.8891941247        4.8096961679
Ti        13.2372150651        0.0005885807        7.2105188503
Ti         3.7761592857        1.8879927446        2.4060759390
Ti         1.8886570220        5.6700091738        4.8122252662
Ti         0.0010345745       11.3489013905        0.0011557030
Ti         0.0008460483        5.6692465748        2.3987791640
Ti         1.8884543346       11.3494618580        7.2106212217
Ti         0.0008719549        7.5697942776        0.0050152277
Ti         1.8889212482        9.4617706598        4.8092168232
Ti         7.5695502097        1.8894946424        2.4084697180
Ti         9.4624532160        0.0013734553        7.2134667574
Ti         1.8889293282        7.5696073702        7.2065456685
Ti         0.0015083884        9.4631397853        2.4014242146
Ti         9.4624995433        1.8883581537        4.8068383806
Ti         7.5692965266        0.0019031419       -0.0063615675
Ti         3.7765199876        3.7774452486       -0.0008365598
Ti        13.2376645660       13.2371209731        4.8080117248
Ti        11.3501434980        5.6704340534        2.4003043136
Ti         5.6698931209       11.3502030224        7.2145074899
Ti        13.2378453351        3.7770768417        7.2073508336
Ti         3.7766547013       13.2379898260        2.4077047779
Ti         5.6699473400        5.6692966065        4.8080311562
Ti        11.3497561727       11.3506152544       -0.0006348778
Ti        11.3503481369       13.2383174357        2.4059812537
Ti         5.6698003651        3.7769989400        7.2132904586
Ti         3.7763904178       11.3505190826       -0.0019608016
Ti        13.2375787525        5.6690842608        4.8139018238
Ti         5.6699091680       13.2370826333        4.8023040571
Ti        11.3495910085        3.7772161307        0.0007987426
Ti        13.2377049528       11.3503096266        7.2090030426
Ti         3.7769045662        5.6706276228        2.4015636210
Ti         3.7768904235        7.5681648363        0.0021399504
Ti        13.2372700224        9.4627153869        4.8111007628
Ti         7.5688089332        5.6693316394        2.4044521970
Ti         9.4620091416       11.3495854271        7.2120241703
Ti        13.2373306460        7.5690322658        7.2049683303
Ti         3.7762158788        9.4618817026        2.4047593152
Ti         9.4622263484        5.6701125592        4.8109630498
Ti         7.5697487988       11.3490408502       -0.0046541178
Ti        11.3496546508        9.4617791041        2.4031799791
Ti         5.6694484357        7.5689422224        7.2106838722
Ti         5.6698728471        9.4626804077        4.8051251063
Ti        11.3500737844        7.5685163233        0.0034939476
Ti         9.4620423657        3.7761600900        7.2104335875
Ti         7.5689000033       13.2368076623        2.4103834430
Ti         7.5694336211        3.7758959602       -0.0032751129
Ti         9.4622130454       13.2380457228        4.8052194218
Ti         7.5690595753        7.5697420287       -0.0005826876
Ti         9.4623870071        9.4617344978        4.8081599393
Ti         7.5692905788        9.4628874952        2.4073276516
Ti         9.4624691654        7.5697433266        7.2077464577
O         0.0013182105        0.0013847788        1.9936283859
O         1.8848331006        1.8878263823        6.8014452816
O         0.0015375372        1.8843991379        4.3975932942
O         1.8874946804        0.0013028129        9.2062838022
O         1.8834308918        0.0015374783        5.2170205712
O        -0.0000692184        1.8877099680        0.4103160840
O         1.8877225863        1.8835090452        2.8131205722
O         0.0017688121       -0.0002645321        7.6219944664
O         0.0011950701        3.7760739961        1.9907422528
O         1.8848245798       13.2368187335        6.8019871232
O        11.3511018063        1.8849178316        4.3972807752
O         5.6723412522        0.0016323574        9.2066981872
O         1.8839025248        3.7760274466        5.2184762268
O         0.0002907087       13.2371389122        0.4090121055
O         5.6720745479        1.8834176825        2.8119751731
O        11.3510161213        0.0004248624        7.6221682476
O         3.7759984105        0.0004059661        7.6243988501
O        13.2368438977        1.8831934946        2.8126936282
O        13.2369114746        0.0017683946        9.2058399955
O         3.7761236207        1.8851262362        4.3952387674
O         1.8850116808        5.6721246966        6.8026478013
O         0.0011533996       11.3511327503        1.9927539482
O         0.0002235640        5.6723053768        0.4084960652
O         1.8836492448       11.3511231908        5.2163704957
O         0.0012223415        7.5667703709        1.9945458202
O         1.8850243651        9.4628150972        6.7992814285
O         7.5668284235        1.8845816692        4.3983846412
O         9.4626301872        0.0015009716        9.2040994039
O         1.8837087827        7.5667418067        5.2161972681
O         0.0000818103        9.4624737092        0.4122782358
O         9.4627981526        1.8837272386        2.8151837746
O         7.5668300569       -0.0000579429        7.6210404952
O         3.7696805296        0.0015747289        1.9931449046
O        13.2385667253        1.8875857132        6.8017415374
O         0.0017127919        5.6566438911        4.3971039651
O         1.8876658239       11.3554822099        9.2060732165
O        13.2372864311        0.0017632502        5.2165797703
O         3.7685372377        1.8880409361        0.4090182909
O         1.8878267568        5.6548310612        2.8131844804
O         0.0017730039       11.3542080151        7.6219797734
O        11.3538185802        1.8878804708        0.4091973466
O         5.6553191867        0.0017696055        5.2165746449
O         5.6567007091        1.8877477753        6.8016952227
O        11.3548788006        0.0017544194        1.9931233280
O         1.8878699759        3.7700204354        9.2061170162
O         0.0017641141       13.2385104860        4.3973908319
O         0.0017048236        3.7687891408        7.6217694408
O         1.8875535046       13.2368493199        2.8131026477
O         3.7701338927        3.7757602670        1.9919801888
O        13.2386364352       13.2369211954        6.8012595832
O        11.3507283953        5.6563418921        4.3972832315
O         5.6720252710       11.3549125365        9.2072434378
O        13.2370354652        3.7758437504        5.2194522712
O         3.7681977806       13.2369211790        0.4096990695
O         5.6721386743        5.6558177404        2.8123447270
O        11.3509837194       11.3535865721        7.6217640919
O        11.3536098690       13.2367565414        0.4101320404
O         5.6556427728        3.7760474865        5.2192119592
O         3.7759977677       11.3534572108        7.6240116484
O        13.2369813204        5.6550299027        2.8132798114
O         5.6563717297       13.2369292427        6.8013376002
O        11.3547647994        3.7757462790        1.9918209675
O        13.2367349142       11.3552368267        9.2064434561
O         3.7760355466        5.6566683152        4.3954868906
O         5.6571462720        5.6722707304        6.8023297303
O        11.3549881944       11.3508175632        1.9939329093
O        13.2367093800        3.7698028848        9.2066665269
O         3.7760103356       13.2379376485        4.3954339302
O        11.3535234659        5.6720187610        0.4093836753
O         5.6553143119       11.3507317039        5.2172641204
O         3.7759957270        3.7687415258        7.6235442893
O        13.2370106131       13.2371441194        2.8133912964
O        13.2371799642       11.3508583894        5.2172890875
O         3.7688647098        5.6719017281        0.4091845125
O         5.6721633812       13.2372341875        2.8124753007
O        11.3510689704        3.7683909932        7.6215975247
O         3.7699692837       11.3507914711        1.9937273547
O        13.2383491022        5.6723675310        6.8021324899
O        11.3508024524       13.2380780769        4.3974433974
O         5.6719907646        3.7700668704        9.2073165624
O         3.7700183746        7.5672205761        1.9940352544
O        13.2384985174        9.4627375217        6.7995778595
O         7.5670610025        5.6572178710        4.3982100374
O         9.4628906053       11.3552586658        9.2039417814
O        13.2373856162        7.5669337398        5.2156831805
O         3.7689586226        9.4628230023        0.4107532333
O         9.4625450920        5.6553156046        2.8148713723
O         7.5668325469       11.3540077135        7.6211855398
O        11.3537113462        9.4629855814        0.4112759683
O         5.6560629677        7.5669743075        5.2155677376
O         5.6569306635        9.4625683998        6.7997806865
O        11.3546492168        7.5670011558        1.9939807663
O         9.4627486441        3.7704653910        9.2041113371
O         7.5670007857       13.2384278031        4.3980989135
O         7.5669473573        3.7693739925        7.6208007245
O         9.4627446352       13.2368046948        2.8151897070
O         7.5835860765        0.0014002657        1.9937507571
O         9.4700039465        1.8877279027        6.8016139258
O         0.0014358952        9.4698252077        4.3979768333
O         1.8877002151        7.5835377520        9.2061642517
O         9.4687964992        0.0015740682        5.2168924673
O         7.5819370125        1.8877610533        0.4104335078
O         1.8877960702        9.4686159074        2.8132271453
O         0.0017013883        7.5822303586        7.6219173595
O         7.5828964785        3.7762750342        1.9910797040
O         9.4701636302       13.2368323992        6.8021069676
O        11.3509259238        9.4701466446        4.3974365025
O         5.6722041952        7.5832511217        9.2068128281
O         9.4685706872        3.7761203793        5.2183440840
O         7.5821257304       13.2371667977        0.4092722164
O         5.6719188492        9.4680826389        2.8119703667
O        11.3509220009        7.5825228430        7.6221143268
O         3.7761358187        7.5822299173        7.6240058170
O        13.2369574016        9.4683721369        2.8127376324
O        13.2369256419        7.5839386235        9.2058995477
O         3.7761815943        9.4697900879        4.3957035686
O         9.4696674091        5.6720565293        6.8029883952
O         7.5833904837       11.3509047202        1.9928187719
O         7.5816966012        5.6722680000        0.4083733341
O         9.4689518068       11.3510184282        5.2162813134
O         7.5828940299        7.5667836404        1.9947383943
O         9.4696800218        9.4628812854        6.7996250160
O         7.5669334755        9.4692808807        4.3986888857
O         9.4624719936        7.5831453117        9.2043059775
O         9.4684278518        7.5667239723        5.2160710093
O         7.5816166125        9.4624532302        0.4121688291
O         9.4627558413        9.4684465680        2.8149967117
O         7.5669182306        7.5814709870        7.6208366683
     192
 i =        7, E =     -5783.1333656841
Ti         0.0006154795        0.0023128123       -0.0008185877
Ti         1.8886398812        1.8879953134        4.8083153543
Ti         0.0015128511        1.8895406191        2.4033328233
Ti         1.8888255382        0.0017139129        7.2113825036
Ti         0.0016014533        3.7754904322        0.0022950040
Ti         1.8884675567       13.2383297343        4.8065182432
Ti        11.3496714721        1.8875446519        2.4049571476
Ti         5.6692651990        0.0005366111        7.2160891318
Ti         1.8882398440        3.7759597418        7.2084717325
Ti         0.0007797734       13.2364677469        2.4051712139
Ti         5.6696069509        1.8892585232        4.8039264139
Ti        11.3503049634       -0.0001884081       -0.0022626351
Ti         3.7772380586        0.0000453100       -0.0039739980
Ti        13.2373750211        1.8892492521        4.8098916915
Ti        13.2369646084        0.0005026086        7.2101439578
Ti         3.7759731129        1.8876633685        2.4066756092
Ti         1.8884388911        5.6701189242        4.8127017606
Ti         0.0012724873       11.3485814286        0.0008536471
Ti         0.0007678934        5.6690305290        2.3989100084
Ti         1.8881405246       11.3495191468        7.2102554132
Ti         0.0008321837        7.5700460190        0.0050818132
Ti         1.8888109145        9.4615349793        4.8097315032
Ti         7.5695387035        1.8896898377        2.4091193648
Ti         9.4625562499        0.0015741075        7.2133453241
Ti         1.8888508863        7.5696540760        7.2058631241
Ti         0.0017088775        9.4633229873        2.4016081813
Ti         9.4625182122        1.8880412860        4.8068047106
Ti         7.5691151663        0.0023520211       -0.0068348755
Ti         3.7763697421        3.7776373025       -0.0010483773
Ti        13.2376506059       13.2367938171        4.8082898988
Ti        11.3504014337        5.6707280253        2.4002246738
Ti         5.6698623844       11.3504588486        7.2144599099
Ti        13.2378337075        3.7770946365        7.2067734698
Ti         3.7767460379       13.2381948391        2.4081168640
Ti         5.6699115998        5.6691781865        4.8082279672
Ti        11.3497248925       11.3511389527       -0.0008770591
Ti        11.3505849616       13.2385282844        2.4062543937
Ti         5.6697967946        3.7769609358        7.2129678897
Ti         3.7762972644       11.3509951257       -0.0024296785
Ti        13.2374978849        5.6690176886        4.8143426807
Ti         5.6698816604       13.2368662103        4.8022425270
Ti        11.3496213916        3.7774273936        0.0007335174
Ti        13.2377088562       11.3506199796        7.2086768148
Ti         3.7769655611        5.6708394659        2.4017611830
Ti         3.7769785601        7.5678625225        0.0021102721
Ti        13.2372096052        9.4629019909        4.8115431673
Ti         7.5687254652        5.6690435061        2.4047848699
Ti         9.4620105046       11.3495697233        7.2120046337
Ti        13.2372176191        7.5688600104        7.2044645200
Ti         3.7761013073        9.4616547314        2.4050804659
Ti         9.4622002384        5.6701934822        4.8111776359
Ti         7.5697079089       11.3487612297       -0.0051813430
Ti        11.3496356846        9.4615850931        2.4033300525
Ti         5.6693046870        7.5688490582        7.2104039599
Ti         5.6696954479        9.4628640365        4.8052890307
Ti        11.3503033456        7.5680432709        0.0036734707
Ti         9.4619502718        3.7759173410        7.2101757747
Ti         7.5686481139       13.2364837534        2.4109979573
Ti         7.5693977434        3.7756239135       -0.0035797265
Ti         9.4622781369       13.2381464830        4.8052690000
Ti         7.5689236123        7.5699424387       -0.0007810226
Ti         9.4623935505        9.4616168624        4.8083521438
Ti         7.5693033585        9.4630621567        2.4076615663
Ti         9.4625736183        7.5697035906        7.2074278650
O         0.0014729344        0.0011862263        1.9941787348
O         1.8853293362        1.8873992746        6.8012982513
O         0.0013754468        1.8852900339        4.3975861102
O         1.8871702343        0.0019485864        9.2074935116
O         1.8840522456        0.0015952343        5.2171930114
O         0.0001031847        1.8875236526        0.4093463911
O         1.8875732387        1.8835187967        2.8125729261
O         0.0017806615        0.0002163839        7.6220886443
O         0.0015062554        3.7757503025        1.9914758405
O         1.8855339498       13.2368156728        6.8017927489
O        11.3511941296        1.8852416057        4.3971719788
O         5.6721687595        0.0018930805        9.2077200624
O         1.8838775629        3.7758505571        5.2181905756
O        -0.0000944362       13.2373646502        0.4079200679
O         5.6720211467        1.8836710233        2.8113112395
O        11.3513319502        0.0000954501        7.6220728122
O         3.7758135249        0.0002763978        7.6241964648
O        13.2369983495        1.8835405963        2.8123072173
O        13.2368928521        0.0017382270        9.2066845603
O         3.7757785342        1.8853440229        4.3952500040
O         1.8855715830        5.6719107483        6.8027054742
O         0.0014370644       11.3511006991        1.9932389097
O         0.0001091631        5.6724557659        0.4071625848
O         1.8838324529       11.3513640820        5.2162454211
O         0.0015988950        7.5664495091        1.9954600900
O         1.8854887020        9.4630663709        6.7994453204
O         7.5666719612        1.8854087614        4.3988053104
O         9.4626775039        0.0019433179        9.2053825290
O         1.8840946659        7.5666995537        5.2159755359
O         0.0001903985        9.4628929362        0.4113026827
O         9.4630910514        1.8837758361        2.8144272960
O         7.5669835226        0.0001800205        7.6208716249
O         3.7704148023        0.0015583092        1.9935493140
O        13.2385589944        1.8872267798        6.8017848531
O         0.0016332465        5.6569719809        4.3970302843
O         1.8873698546       11.3548282627        9.2068639925
O        13.2367861798        0.0017285952        5.2164082617
O         3.7685750079        1.8877402984        0.4079400051
O         1.8875871752        5.6543525076        2.8125122010
O         0.0017950827       11.3530744179        7.6221304535
O        11.3530679518        1.8877854902        0.4082265973
O         5.6547157403        0.0017924988        5.2165863033
O         5.6572351797        1.8873781607        6.8015887584
O        11.3545428145        0.0015612296        1.9934749579
O         1.8875284556        3.7706708360        9.2067040535
O         0.0016105195       13.2382049565        4.3972861176
O         0.0017610481        3.7690315760        7.6218962070
O         1.8874561342       13.2366692148        2.8126361683
O         3.7708112012        3.7752824618        1.9927251099
O        13.2382766207       13.2369581591        6.8013072013
O        11.3508569341        5.6569675436        4.3974594473
O         5.6717373490       11.3548908488        9.2083554353
O        13.2369793017        3.7756893123        5.2192144949
O         3.7686074649       13.2369967315        0.4089034921
O         5.6721786240        5.6554010522        2.8116484589
O        11.3513635957       11.3531770007        7.6220301195
O        11.3532297065       13.2369746392        0.4095513071
O         5.6555033918        3.7758147615        5.2190053804
O         3.7757658380       11.3530120176        7.6240385552
O        13.2370155729        5.6543231698        2.8127271923
O         5.6568144201       13.2368982906        6.8011498897
O        11.3544726068        3.7752174171        1.9925706961
O        13.2366979960       11.3551082420        9.2072980397
O         3.7756482046        5.6573845885        4.3958696148
O         5.6575818268        5.6721895272        6.8025107723
O        11.3547040810       11.3508409540        1.9945080397
O        13.2366796192        3.7706477732        9.2073935049
O         3.7755204422       13.2382228362        4.3957422076
O        11.3531174947        5.6719850406        0.4083864958
O         5.6551860470       11.3509949312        5.2172802199
O         3.7758507649        3.7693309010        7.6236330474
O        13.2371356147       13.2366990823        2.8128332715
O        13.2369560391       11.3510736520        5.2171594689
O         3.7691923520        5.6719568788        0.4082355501
O         5.6721917590       13.2366228324        2.8117059008
O        11.3513597185        3.7689562765        7.6217107229
O         3.7705867467       11.3508294490        1.9942297545
O        13.2382866388        5.6722469658        6.8023435585
O        11.3510249260       13.2383566646        4.3977756184
O         5.6716852819        3.7709891656        9.2081639359
O         3.7706560386        7.5670533917        1.9947684110
O        13.2384273876        9.4629285140        6.7998431528
O         7.5669879022        5.6576059894        4.3984369353
O         9.4629187153       11.3548161493        9.2048685180
O        13.2367785986        7.5670961851        5.2153312363
O         3.7688962024        9.4634162036        0.4095620662
O         9.4629473375        5.6549074986        2.8141369107
O         7.5669279146       11.3531439458        7.6209317345
O        11.3530263774        9.4634575762        0.4100906538
O         5.6557455817        7.5670740899        5.2153271205
O         5.6576299944        9.4628185259        6.7999262086
O        11.3544342453        7.5669223305        1.9947786530
O         9.4629066435        3.7709648944        9.2049613586
O         7.5669647329       13.2381241662        4.3984059897
O         7.5670198242        3.7693672206        7.6205738691
O         9.4629955520       13.2366255342        2.8143387226
O         7.5839667407        0.0012492877        1.9943509227
O         9.4696399522        1.8874691689        6.8015271608
O         0.0014168021        9.4698550914        4.3980563751
O         1.8873349119        7.5840441323        9.2070472952
O         9.4683074369        0.0015463727        5.2171288500
O         7.5814917499        1.8876736382        0.4096667204
O         1.8876413852        9.4678605414        2.8128179381
O         0.0017948002        7.5817048696        7.6222223694
O         7.5830254594        3.7758577040        1.9917378427
O         9.4699860321       13.2368202254        6.8019124369
O        11.3511332163        9.4695627920        4.3974708134
O         5.6720383902        7.5833281083        9.2075971178
O         9.4677916692        3.7758544382        5.2181715888
O         7.5815215771       13.2373063270        0.4083273314
O         5.6719260767        9.4675252469        2.8114767035
O        11.3512133624        7.5818830685        7.6221458742
O         3.7759288862        7.5813705279        7.6239213065
O        13.2369524851        9.4678875503        2.8124071894
O        13.2368457715        7.5843276938        9.2065379363
O         3.7757461145        9.4693538209        4.3957076610
O         9.4695754338        5.6718346796        6.8029441736
O         7.5836008652       11.3509932822        1.9934150727
O         7.5808717832        5.6724341763        0.4072846925
O         9.4681241810       11.3513031441        5.2163153629
O         7.5830105621        7.5664871608        1.9955444079
O         9.4693364801        9.4629886126        6.7996985682
O         7.5667490392        9.4693000860        4.3990160995
O         9.4626445429        7.5837360945        9.2054154881
O         9.4679529931        7.5667104204        5.2160119301
O         7.5810910689        9.4627944416        0.4111884598
O         9.4630464357        9.4676067144        2.8143033627
O         7.5670229377        7.5810172022        7.6207176092
     192
 i =        8, E =     -5783.1339795363
Ti         0.0014069968        0.0037513492       -0.0023772318
Ti         1.8883730172        1.8878124647        4.8093967491
Ti         0.0022710727        1.8905983830        2.4058904473
Ti         1.8881621759        0.0020071217        7.2086706418
Ti         0.0025633866        3.7747154202        0.0011766128
Ti         1.8880090505       13.2377472782        4.8083404190
Ti        11.3494356020        1.8870053823        2.4072330485
Ti         5.6690164792        0.0007932197        7.2142558361
Ti         1.8877187737        3.7755672973        7.2058186147
Ti         0.0012401336       13.2354347388        2.4079246719
Ti         5.6697086898        1.8891692969        4.8042143328
Ti        11.3504869290       -0.0005622391       -0.0030287012
Ti         3.7783989053       -0.0007380611       -0.0051098478
Ti        13.2367801841        1.8890846909        4.8108708288
Ti        13.2360344830        0.0010144165        7.2075880127
Ti         3.7759413027        1.8873154166        2.4091650420
Ti         1.8881491610        5.6703109186        4.8141348456
Ti         0.0026646083       11.3470441310       -0.0006549991
Ti         0.0009779168        5.6691073867        2.4008526840
Ti         1.8873380505       11.3498513771        7.2077124654
Ti         0.0013184072        7.5697909270        0.0044198579
Ti         1.8884107224        9.4609947158        4.8113865068
Ti         7.5688714219        1.8903221795        2.4116274014
Ti         9.4623714986        0.0021738631        7.2114403446
Ti         1.8884757410        7.5692534428        7.2031655205
Ti         0.0021948437        9.4634927205        2.4040061673
Ti         9.4622336106        1.8876080564        4.8072696467
Ti         7.5684170292        0.0036209394       -0.0079222678
Ti         3.7765638009        3.7780882854       -0.0020269054
Ti        13.2371419842       13.2358280527        4.8095627861
Ti        11.3506156935        5.6717962699        2.4012440204
Ti         5.6694695333       11.3506482115        7.2131204523
Ti        13.2371735793        3.7770580403        7.2045517455
Ti         3.7771680515       13.2385013966        2.4101313009
Ti         5.6697625010        5.6693974121        4.8090751055
Ti        11.3492610456       11.3518271866       -0.0018285434
Ti        11.3505281365       13.2386940043        2.4082655665
Ti         5.6696201092        3.7767976061        7.2111786615
Ti         3.7768012748       11.3516758271       -0.0040002031
Ti        13.2369469085        5.6694773026        4.8154680233
Ti         5.6699432222       13.2362627274        4.8028371855
Ti        11.3495574425        3.7779447774       -0.0001102492
Ti        13.2372200817       11.3509949757        7.2065097860
Ti         3.7771620017        5.6713213140        2.4034476804
Ti         3.7777324102        7.5667474384        0.0015352333
Ti        13.2370150941        9.4627818341        4.8126945305
Ti         7.5684497882        5.6688532689        2.4065317932
Ti         9.4617763626       11.3495803191        7.2103981576
Ti        13.2365998687        7.5685213893        7.2022607077
Ti         3.7761672131        9.4612578060        2.4071063411
Ti         9.4621042604        5.6701376026        4.8120531410
Ti         7.5690170768       11.3475978485       -0.0065957346
Ti        11.3494493593        9.4613110624        2.4052743904
Ti         5.6690745925        7.5686012390        7.2086866089
Ti         5.6693581222        9.4627606165        4.8060954209
Ti        11.3505711921        7.5660100183        0.0036132918
Ti         9.4614786201        3.7757078027        7.2085108578
Ti         7.5679048155       13.2357442540        2.4133216207
Ti         7.5690879106        3.7751978312       -0.0046776632
Ti         9.4625103903       13.2376542747        4.8061893055
Ti         7.5684156345        7.5697441128       -0.0015799371
Ti         9.4621193681        9.4614359233        4.8091351801
Ti         7.5690508145        9.4632469076        2.4095150671
Ti         9.4624449746        7.5689786533        7.2056644140
O         0.0012688359        0.0007128859        1.9951951761
O         1.8861572570        1.8863985249        6.8012116654
O         0.0011504850        1.8868643110        4.3974966792
O         1.8866001907        0.0030249616        9.2112072212
O         1.8851013410        0.0017368478        5.2172936384
O         0.0004118472        1.8873277634        0.4058775776
O         1.8872020124        1.8827896255        2.8105824417
O         0.0017230641        0.0015649445        7.6229982457
O         0.0020240554        3.7747490299        1.9929930821
O         1.8862634999       13.2369461458        6.8012728063
O        11.3512344152        1.8854692471        4.3967903459
O         5.6716029752        0.0021999615        9.2102304196
O         1.8838448217        3.7752381684        5.2182738577
O        -0.0009648924       13.2377150764        0.4043798452
O         5.6719370053        1.8840530428        2.8100411583
O        11.3520579416       -0.0006042652        7.6223977004
O         3.7752029545       -0.0000931426        7.6243461402
O        13.2372761827        1.8837143736        2.8108465185
O        13.2366950538        0.0013590128        9.2098847572
O         3.7747074469        1.8853436792        4.3948898679
O         1.8862842257        5.6713463993        6.8021292633
O         0.0019449289       11.3509047154        1.9943831878