 DBCSR| CPU Multiplication driver                                           XSMM (U)
 DBCSR| Multrec recursion limit                                              512 (U)
 DBCSR| Multiplication stack size                                           1000 (D)
 DBCSR| Maximum elements for images                                    UNLIMITED (U)
 DBCSR| Multiplicative factor virtual images                                   1 (U)
 DBCSR| Use multiplication densification                                       T (D)
 DBCSR| Multiplication size stacks                                             3 (U)
 DBCSR| Use memory pool for CPU allocation                                     F (U)
 DBCSR| Number of 3D layers                                               SINGLE (U)
 DBCSR| Use MPI memory allocation                                              F (U)
 DBCSR| Use RMA algorithm                                                      F (U)
 DBCSR| Use Communication thread                                               T (U)
 DBCSR| Communication thread load                                             87 (D)
 DBCSR| MPI: My process id                                                     0
 DBCSR| MPI: Number of processes                                             128
 DBCSR| OMP: Current number of threads                                         1
 DBCSR| OMP: Max number of threads                                             1
 DBCSR| Split modifier for TAS multiplication algorithm                  1.0E+00 (U)


  **** **** ******  **  PROGRAM STARTED AT               2025-06-12 09:58:49.069
 ***** ** ***  *** **   PROGRAM STARTED ON                             nid006721
 **    ****   ******    PROGRAM STARTED BY                                cahart
 ***** **    ** ** **   PROGRAM PROCESS ID                                150243
  **** **  *******  **  PROGRAM STARTED IN /mnt/lustre/a2fs-work2/work/e05/e05/c
                                           ahart/postdoc2/work/group/tio2/anatas
                                           e/cell-441/geo-opt/mp-390/neutral/pbe
                                           -u-o/u-8.0

 CP2K| version string:                                       CP2K version 2024.3
 CP2K| source code revision number:                                  git:6712648
 CP2K| cp2kflags: omp libint fftw3 libxc libgrpp elpa parallel scalapack cosma x
 CP2K|            smm plumed2 spglib mkl sirius libvori libbqb libvdwxc hdf5
 CP2K| is freely available from                            https://www.cp2k.org/
 CP2K| Program compiled at                       Thu 12 Sep 2024 10:20:47 AM BST
 CP2K| Program compiled on                                                  ln04
 CP2K| Program compiled for                                                local
 CP2K| Data directory path    /mnt/lustre/a2fs-work1/work/y07/shared/apps/core/c
 CP2K| Input file name                                                 input.inp

 GLOBAL| Force Environment number                                              1
 GLOBAL| Basis set file name                                        BASIS_MOLOPT
 GLOBAL| Potential file name                                      GTH_POTENTIALS
 GLOBAL| MM Potential file name                                     MM_POTENTIAL
 GLOBAL| Coordinate file name                                         system.xyz
 GLOBAL| Method name                                                        CP2K
 GLOBAL| Project name                                                       tio2
 GLOBAL| Run type                                                        GEO_OPT
 GLOBAL| FFT library                                                       FFTW3
 GLOBAL| Diagonalization library                                            ELPA
 GLOBAL| DGEMM library                                                      BLAS
 GLOBAL| Minimum number of eigenvectors for ELPA usage                        16
 GLOBAL| Orthonormality check for eigenvectors                          DISABLED
 GLOBAL| Matrix multiplication library                                     COSMA
 GLOBAL| All-to-all communication in single precision                          F
 GLOBAL| FFTs using library dependent lengths                                  F
 GLOBAL| Grid backend                                                       AUTO
 GLOBAL| Global print level                                               MEDIUM
 GLOBAL| MPI I/O enabled                                                       T
 GLOBAL| Total number of message passing processes                           128
 GLOBAL| Number of threads for this process                                    1
 GLOBAL| This output is from process                                           0
 GLOBAL| Stack size for threads created by OpenMP (OMP_STACKSIZE)        default
 GLOBAL| CPU model name                          AMD EPYC 7742 64-Core Processor
 GLOBAL| CPUID                                                              1002

 MEMORY| system memory details [Kb]
 MEMORY|                        rank 0           min           max       average
 MEMORY| MemTotal            263341976     263341976     263341976     263341976
 MEMORY| MemFree             234286604     234283328     234286856     234285790
 MEMORY| Buffers                     0             0             0             0
 MEMORY| Cached                2030912       2030912       2032960       2031483
 MEMORY| Slab                  6048876       6048852       6049036       6048913
 MEMORY| SReclaimable           905720        905720        905768        905733
 MEMORY| MemLikelyFree       237223236     237222056     237224708     237223007


 *** Fundamental physical constants (SI units) ***

 *** Literature: B. J. Mohr and B. N. Taylor,
 ***             CODATA recommended values of the fundamental physical
 ***             constants: 2006, Web Version 5.1
 ***             http://physics.nist.gov/constants

 Speed of light in vacuum [m/s]                             2.99792458000000E+08
 Magnetic constant or permeability of vacuum [N/A**2]       1.25663706143592E-06
 Electric constant or permittivity of vacuum [F/m]          8.85418781762039E-12
 Planck constant (h) [J*s]                                  6.62606896000000E-34
 Planck constant (h-bar) [J*s]                              1.05457162825177E-34
 Elementary charge [C]                                      1.60217648700000E-19
 Electron mass [kg]                                         9.10938215000000E-31
 Electron g factor [ ]                                     -2.00231930436220E+00
 Proton mass [kg]                                           1.67262163700000E-27
 Fine-structure constant                                    7.29735253760000E-03
 Rydberg constant [1/m]                                     1.09737315685270E+07
 Avogadro constant [1/mol]                                  6.02214179000000E+23
 Boltzmann constant [J/K]                                   1.38065040000000E-23
 Atomic mass unit [kg]                                      1.66053878200000E-27
 Bohr radius [m]                                            5.29177208590000E-11

 *** Conversion factors ***

 [u] -> [a.u.]                                              1.82288848426455E+03
 [Angstrom] -> [Bohr] = [a.u.]                              1.88972613288564E+00
 [a.u.] = [Bohr] -> [Angstrom]                              5.29177208590000E-01
 [a.u.] -> [s]                                              2.41888432650478E-17
 [a.u.] -> [fs]                                             2.41888432650478E-02
 [a.u.] -> [J]                                              4.35974393937059E-18
 [a.u.] -> [N]                                              8.23872205491840E-08
 [a.u.] -> [K]                                              3.15774647902944E+05
 [a.u.] -> [kJ/mol]                                         2.62549961709828E+03
 [a.u.] -> [kcal/mol]                                       6.27509468713739E+02
 [a.u.] -> [Pa]                                             2.94210107994716E+13
 [a.u.] -> [bar]                                            2.94210107994716E+08
 [a.u.] -> [atm]                                            2.90362800883016E+08
 [a.u.] -> [eV]                                             2.72113838565563E+01
 [a.u.] -> [Hz]                                             6.57968392072181E+15
 [a.u.] -> [1/cm] (wave numbers)                            2.19474631370540E+05
 [a.u./Bohr**2] -> [1/cm]                                   5.14048714338585E+03
 

 CELL_TOP| Volume [angstrom^3]:                                      2198.132028
 CELL_TOP| Vector a [angstrom    15.120     0.000     0.000   |a| =    15.120000
 CELL_TOP| Vector b [angstrom     0.000    15.120     0.000   |b| =    15.120000
 CELL_TOP| Vector c [angstrom     0.000     0.000     9.615   |c| =     9.615020
 CELL_TOP| Angle (b,c), alpha [degree]:                                90.000000
 CELL_TOP| Angle (a,c), beta  [degree]:                                90.000000
 CELL_TOP| Angle (a,b), gamma [degree]:                                90.000000
 CELL_TOP| Requested initial symmetry:                       MONOCLINIC_GAMMA_AB
 CELL_TOP| Numerically orthorhombic:                                         YES
 CELL_TOP| Periodicity                                                       XYZ

 GENERATE|  Preliminary Number of Bonds generated:                             0
 GENERATE|  Achieved consistency in connectivity generation.

 CELL| Volume [angstrom^3]:                                          2198.132028
 CELL| Vector a [angstrom]:      15.120     0.000     0.000   |a| =    15.120000
 CELL| Vector b [angstrom]:       0.000    15.120     0.000   |b| =    15.120000
 CELL| Vector c [angstrom]:       0.000     0.000     9.615   |c| =     9.615020
 CELL| Angle (b,c), alpha [degree]:                                    90.000000
 CELL| Angle (a,c), beta  [degree]:                                    90.000000
 CELL| Angle (a,b), gamma [degree]:                                    90.000000
 CELL| Requested initial symmetry:                           MONOCLINIC_GAMMA_AB
 CELL| Numerically orthorhombic:                                             YES
 CELL| Periodicity                                                           XYZ

 CELL_REF| Volume [angstrom^3]:                                      2198.132028
 CELL_REF| Vector a [angstrom    15.120     0.000     0.000   |a| =    15.120000
 CELL_REF| Vector b [angstrom     0.000    15.120     0.000   |b| =    15.120000
 CELL_REF| Vector c [angstrom     0.000     0.000     9.615   |c| =     9.615020
 CELL_REF| Angle (b,c), alpha [degree]:                                90.000000
 CELL_REF| Angle (a,c), beta  [degree]:                                90.000000
 CELL_REF| Angle (a,b), gamma [degree]:                                90.000000
 CELL_REF| Requested initial symmetry:                       MONOCLINIC_GAMMA_AB
 CELL_REF| Numerically orthorhombic:                                         YES
 CELL_REF| Periodicity                                                       XYZ

 *******************************************************************************
 *******************************************************************************
 **                                                                           **
 **     #####                         ##              ##                      **
 **    ##   ##            ##          ##              ##                      **
 **   ##     ##                       ##            ######                    **
 **   ##     ##  ##   ##  ##   #####  ##  ##   ####   ##    #####    #####    **
 **   ##     ##  ##   ##  ##  ##      ## ##   ##      ##   ##   ##  ##   ##   **
 **   ##  ## ##  ##   ##  ##  ##      ####     ###    ##   ######   ######    **
 **    ##  ###   ##   ##  ##  ##      ## ##      ##   ##   ##       ##        **
 **     #######   #####   ##   #####  ##  ##  ####    ##    #####   ##        **
 **           ##                                                    ##        **
 **                                                                           **
 **                                                ... make the atoms dance   **
 **                                                                           **
 **            Copyright (C) by CP2K developers group (2000-2024)             **
 **                      J. Chem. Phys. 152, 194103 (2020)                    **
 **                                                                           **
 *******************************************************************************

 DFT| Spin unrestricted (spin-polarized) Kohn-Sham calculation               UKS
 DFT| Multiplicity                                                             1
 DFT| Number of spin states                                                    2
 DFT| Charge                                                                   0
 DFT| Self-interaction correction (SIC)                                       NO
 DFT| Cutoffs: density                                              1.000000E-10
 DFT|          gradient                                             1.000000E-10
 DFT|          tau                                                  1.000000E-10
 DFT|          cutoff_smoothing_range                               0.000000E+00
 DFT| XC density smoothing                                                  NONE
 DFT| XC derivatives                                                          PW

 DFT+U| Method                                                          MULLIKEN
 DFT+U| Check atomic kind information for details

 FUNCTIONAL| PBE:
 FUNCTIONAL| J.P.Perdew, K.Burke, M.Ernzerhof, Phys. Rev. Letter, vol. 77, n 18,
 FUNCTIONAL|  pp. 3865-3868, (1996) {spin polarized}                            


 QS| Method:                                                                 GPW
 QS| Density plane wave grid type                        NON-SPHERICAL FULLSPACE
 QS| Number of grid levels:                                                    4
 QS| Density cutoff [a.u.]:                                                300.0
 QS| Multi grid cutoff [a.u.]: 1) grid level                               300.0
 QS|                           2) grid level                               100.0
 QS|                           3) grid level                                33.3
 QS|                           4) grid level                                11.1
 QS| Grid level progression factor:                                          3.0
 QS| Relative density cutoff [a.u.]:                                        20.0
 QS| Interaction thresholds: eps_pgf_orb:                                1.0E-06
 QS|                         eps_filter_matrix:                          0.0E+00
 QS|                         eps_core_charge:                            1.0E-14
 QS|                         eps_rho_gspace:                             1.0E-12
 QS|                         eps_rho_rspace:                             1.0E-12
 QS|                         eps_gvg_rspace:                             1.0E-06
 QS|                         eps_ppl:                                    1.0E-02
 QS|                         eps_ppnl:                                   1.0E-08


 ATOMIC KIND INFORMATION

  1. Atomic kind: Ti                                    Number of atoms:      64

     Orbital Basis Set                                    DZVP-MOLOPT-SR-GTH-q12

       Number of orbital shell sets:                                           1
       Number of orbital shells:                                               8
       Number of primitive Cartesian functions:                                6
       Number of Cartesian basis functions:                                   31
       Number of spherical basis functions:                                   26
       Norm type:                                                              2

       Normalised Cartesian orbitals:

                        Set   Shell   Orbital            Exponent    Coefficient

                          1       1    2s                7.884570       0.015554
                                                         3.894698       0.963603
                                                         1.513589      -0.631435
                                                         0.596768      -0.343022
                                                         0.222222      -0.006534
                                                         0.077078       0.007652

                          1       2    3s                7.884570      -0.009340
                                                         3.894698       0.212624
                                                         1.513589      -0.258368
                                                         0.596768      -0.226206
                                                         0.222222       0.039438
                                                         0.077078       0.107179

                          1       3    4s                7.884570       0.276563
                                                         3.894698       0.105452
                                                         1.513589       0.085149
                                                         0.596768       0.882541
                                                         0.222222      -0.696223
                                                         0.077078       0.156638

                          1       4    3px               7.884570      -2.034794
                                                         3.894698       0.782008
                                                         1.513589       1.253903
                                                         0.596768       0.347823
                                                         0.222222       0.016778
                                                         0.077078      -0.000433
                          1       4    3py               7.884570      -2.034794
                                                         3.894698       0.782008
                                                         1.513589       1.253903
                                                         0.596768       0.347823
                                                         0.222222       0.016778
                                                         0.077078      -0.000433
                          1       4    3pz               7.884570      -2.034794
                                                         3.894698       0.782008
                                                         1.513589       1.253903
                                                         0.596768       0.347823
                                                         0.222222       0.016778
                                                         0.077078      -0.000433

                          1       5    4px               7.884570       0.376572
                                                         3.894698      -0.182875
                                                         1.513589      -0.474776
                                                         0.596768      -0.081757
                                                         0.222222       0.064432
                                                         0.077078       0.047279
                          1       5    4py               7.884570       0.376572
                                                         3.894698      -0.182875
                                                         1.513589      -0.474776
                                                         0.596768      -0.081757
                                                         0.222222       0.064432
                                                         0.077078       0.047279
                          1       5    4pz               7.884570       0.376572
                                                         3.894698      -0.182875
                                                         1.513589      -0.474776
                                                         0.596768      -0.081757
                                                         0.222222       0.064432
                                                         0.077078       0.047279

                          1       6    4dx2              7.884570       3.047350
                                                         3.894698       3.289529
                                                         1.513589       1.060616
                                                         0.596768       0.249930
                                                         0.222222       0.038806
                                                         0.077078       0.002319
                          1       6    4dxy              7.884570       5.278165
                                                         3.894698       5.697631
                                                         1.513589       1.837041
                                                         0.596768       0.432892
                                                         0.222222       0.067214
                                                         0.077078       0.004017
                          1       6    4dxz              7.884570       5.278165
                                                         3.894698       5.697631
                                                         1.513589       1.837041
                                                         0.596768       0.432892
                                                         0.222222       0.067214
                                                         0.077078       0.004017
                          1       6    4dy2              7.884570       3.047350
                                                         3.894698       3.289529
                                                         1.513589       1.060616
                                                         0.596768       0.249930
                                                         0.222222       0.038806
                                                         0.077078       0.002319
                          1       6    4dyz              7.884570       5.278165
                                                         3.894698       5.697631
                                                         1.513589       1.837041
                                                         0.596768       0.432892
                                                         0.222222       0.067214
                                                         0.077078       0.004017
                          1       6    4dz2              7.884570       3.047350
                                                         3.894698       3.289529
                                                         1.513589       1.060616
                                                         0.596768       0.249930
                                                         0.222222       0.038806
                                                         0.077078       0.002319

                          1       7    5dx2              7.884570      -2.119015
                                                         3.894698      -1.237751
                                                         1.513589      -0.746777
                                                         0.596768      -0.071514
                                                         0.222222       0.004086
                                                         0.077078       0.017595
                          1       7    5dxy              7.884570      -3.670241
                                                         3.894698      -2.143848
                                                         1.513589      -1.293455
                                                         0.596768      -0.123865
                                                         0.222222       0.007077
                                                         0.077078       0.030475
                          1       7    5dxz              7.884570      -3.670241
                                                         3.894698      -2.143848
                                                         1.513589      -1.293455
                                                         0.596768      -0.123865
                                                         0.222222       0.007077
                                                         0.077078       0.030475
                          1       7    5dy2              7.884570      -2.119015
                                                         3.894698      -1.237751
                                                         1.513589      -0.746777
                                                         0.596768      -0.071514
                                                         0.222222       0.004086
                                                         0.077078       0.017595
                          1       7    5dyz              7.884570      -3.670241
                                                         3.894698      -2.143848
                                                         1.513589      -1.293455
                                                         0.596768      -0.123865
                                                         0.222222       0.007077
                                                         0.077078       0.030475
                          1       7    5dz2              7.884570      -2.119015
                                                         3.894698      -1.237751
                                                         1.513589      -0.746777
                                                         0.596768      -0.071514
                                                         0.222222       0.004086
                                                         0.077078       0.017595

                          1       8    5fx3              7.884570      -0.342058
                                                         3.894698       0.375798
                                                         1.513589      -0.706469
                                                         0.596768      -0.229994
                                                         0.222222      -0.012723
                                                         0.077078       0.003932
                          1       8    5fx2y             7.884570      -0.764866
                                                         3.894698       0.840310
                                                         1.513589      -1.579712
                                                         0.596768      -0.514282
                                                         0.222222      -0.028450
                                                         0.077078       0.008792
                          1       8    5fx2z             7.884570      -0.764866
                                                         3.894698       0.840310
                                                         1.513589      -1.579712
                                                         0.596768      -0.514282
                                                         0.222222      -0.028450
                                                         0.077078       0.008792
                          1       8    5fxy2             7.884570      -0.764866
                                                         3.894698       0.840310
                                                         1.513589      -1.579712
                                                         0.596768      -0.514282
                                                         0.222222      -0.028450
                                                         0.077078       0.008792
                          1       8    5fxyz             7.884570      -1.324787
                                                         3.894698       1.455460
                                                         1.513589      -2.736142
                                                         0.596768      -0.890763
                                                         0.222222      -0.049276
                                                         0.077078       0.015229
                          1       8    5fxz2             7.884570      -0.764866
                                                         3.894698       0.840310
                                                         1.513589      -1.579712
                                                         0.596768      -0.514282
                                                         0.222222      -0.028450
                                                         0.077078       0.008792
                          1       8    5fy3              7.884570      -0.342058
                                                         3.894698       0.375798
                                                         1.513589      -0.706469
                                                         0.596768      -0.229994
                                                         0.222222      -0.012723
                                                         0.077078       0.003932
                          1       8    5fy2z             7.884570      -0.764866
                                                         3.894698       0.840310
                                                         1.513589      -1.579712
                                                         0.596768      -0.514282
                                                         0.222222      -0.028450
                                                         0.077078       0.008792
                          1       8    5fyz2             7.884570      -0.764866
                                                         3.894698       0.840310
                                                         1.513589      -1.579712
                                                         0.596768      -0.514282
                                                         0.222222      -0.028450
                                                         0.077078       0.008792
                          1       8    5fz3              7.884570      -0.342058
                                                         3.894698       0.375798
                                                         1.513589      -0.706469
                                                         0.596768      -0.229994
                                                         0.222222      -0.012723
                                                         0.077078       0.003932

       Atomic covalent radius [Angstrom]:                                  1.320

       Atomic van der Waals radius [Angstrom]:                             1.760

     GTH Potential information for                                   GTH-PBE-q12

       Description:                       Goedecker-Teter-Hutter pseudopotential
                                           Goedecker et al., PRB 54, 1703 (1996)
                                          Hartwigsen et al., PRB 58, 3641 (1998)
                                                      Krack, TCA 114, 145 (2005)

       Gaussian exponent of the core charge distribution:               3.462604
       Electronic configuration (s p d ...):                           4   6   2

       Parameters of the local part of the GTH pseudopotential:

                          rloc        C1          C2          C3          C4
                        0.380000    8.711442   -0.700287

       Parameters of the non-local part of the GTH pseudopotential:

                   l      r(l)      h(i,j,l)

                   0    0.337771    2.575264    3.692971
                                    3.692971   -4.767605
                   1    0.242531   -4.630541    8.870875
                                    8.870875  -10.496161
                   2    0.243317   -9.406653

  2. Atomic kind: O                                     Number of atoms:     128

     Orbital Basis Set                                     DZVP-MOLOPT-SR-GTH-q6

       Number of orbital shell sets:                                           1
       Number of orbital shells:                                               5
       Number of primitive Cartesian functions:                                5
       Number of Cartesian basis functions:                                   14
       Number of spherical basis functions:                                   13
       Norm type:                                                              2

       Normalised Cartesian orbitals:

                        Set   Shell   Orbital            Exponent    Coefficient

                          1       1    2s               10.389228       0.396646
                                                         3.849621       0.208811
                                                         1.388401      -0.301641
                                                         0.496955      -0.274061
                                                         0.162492      -0.033677

                          1       2    3s               10.389228       0.303673
                                                         3.849621       0.240943
                                                         1.388401      -0.313066
                                                         0.496955      -0.043055
                                                         0.162492       0.213991

                          1       3    3px              10.389228      -1.530415
                                                         3.849621      -1.371928
                                                         1.388401      -0.761951
                                                         0.496955      -0.253695
                                                         0.162492      -0.035541
                          1       3    3py              10.389228      -1.530415
                                                         3.849621      -1.371928
                                                         1.388401      -0.761951
                                                         0.496955      -0.253695
                                                         0.162492      -0.035541
                          1       3    3pz              10.389228      -1.530415
                                                         3.849621      -1.371928
                                                         1.388401      -0.761951
                                                         0.496955      -0.253695
                                                         0.162492      -0.035541

                          1       4    4px              10.389228      -0.565392
                                                         3.849621      -0.038231
                                                         1.388401      -0.382373
                                                         0.496955       0.179070
                                                         0.162492       0.122714
                          1       4    4py              10.389228      -0.565392
                                                         3.849621      -0.038231
                                                         1.388401      -0.382373
                                                         0.496955       0.179070
                                                         0.162492       0.122714
                          1       4    4pz              10.389228      -0.565392
                                                         3.849621      -0.038231
                                                         1.388401      -0.382373
                                                         0.496955       0.179070
                                                         0.162492       0.122714

                          1       5    4dx2             10.389228       1.867377
                                                         3.849621       0.670994
                                                         1.388401       1.353441
                                                         0.496955       0.273538
                                                         0.162492       0.006620
                          1       5    4dxy             10.389228       3.234392
                                                         3.849621       1.162195
                                                         1.388401       2.344229
                                                         0.496955       0.473781
                                                         0.162492       0.011466
                          1       5    4dxz             10.389228       3.234392
                                                         3.849621       1.162195
                                                         1.388401       2.344229
                                                         0.496955       0.473781
                                                         0.162492       0.011466
                          1       5    4dy2             10.389228       1.867377
                                                         3.849621       0.670994
                                                         1.388401       1.353441
                                                         0.496955       0.273538
                                                         0.162492       0.006620
                          1       5    4dyz             10.389228       3.234392
                                                         3.849621       1.162195
                                                         1.388401       2.344229
                                                         0.496955       0.473781
                                                         0.162492       0.011466
                          1       5    4dz2             10.389228       1.867377
                                                         3.849621       0.670994
                                                         1.388401       1.353441
                                                         0.496955       0.273538
                                                         0.162492       0.006620

       Atomic covalent radius [Angstrom]:                                  0.730

       Atomic van der Waals radius [Angstrom]:                             1.520

     GTH Potential information for                                    GTH-PBE-q6

       Description:                       Goedecker-Teter-Hutter pseudopotential
                                           Goedecker et al., PRB 54, 1703 (1996)
                                          Hartwigsen et al., PRB 58, 3641 (1998)
                                                      Krack, TCA 114, 145 (2005)

       Gaussian exponent of the core charge distribution:               8.360253
       Electronic configuration (s p d ...):                               2   4

       Parameters of the local part of the GTH pseudopotential:

                          rloc        C1          C2          C3          C4
                        0.244554  -16.667215    2.487311

       Parameters of the non-local part of the GTH pseudopotential:

                   l      r(l)      h(i,j,l)

                   0    0.220956   18.337458
                   1    0.211332

     A DFT+U correction is applied to atoms of this atomic kind:
       Angular quantum momentum number L:                                      1
       U(eff) = (U - J) value in [eV]:                                     8.000


 MOLECULE KIND INFORMATION


 All atoms are their own molecule, skipping detailed information


 TOTAL NUMBERS AND MAXIMUM NUMBERS

  Total number of            - Atomic kinds:                                   2
                             - Atoms:                                        192
                             - Shell sets:                                   192
                             - Shells:                                      1152
                             - Primitive Cartesian functions:               1024
                             - Cartesian basis functions:                   3776
                             - Spherical basis functions:                   3328

  Maximum angular momentum of- Orbital basis functions:                        3
                             - Local part of the GTH pseudopotential:          2
                             - Non-local part of the GTH pseudopotential:      3


 MODULE QUICKSTEP: ATOMIC COORDINATES IN ANGSTROM

   Atom Kind Element         X             Y             Z       Z(eff)     Mass
      1    1 Ti   22      0.000000      0.000000      0.000000  12.0000  47.8670
      2    1 Ti   22      1.891270      1.891270      4.807511  12.0000  47.8670
      3    1 Ti   22      0.000000      1.891270      2.403755  12.0000  47.8670
      4    1 Ti   22      1.891270      0.000000      7.211266  12.0000  47.8670
      5    1 Ti   22      0.000000      3.782540      0.000000  12.0000  47.8670
      6    1 Ti   22      1.891270     13.238889      4.807511  12.0000  47.8670
      7    1 Ti   22     11.347620      1.891270      2.403755  12.0000  47.8670
      8    1 Ti   22      5.673810      0.000000      7.211266  12.0000  47.8670
      9    1 Ti   22      1.891270      3.782540      7.211266  12.0000  47.8670
     10    1 Ti   22      0.000000     13.238889      2.403755  12.0000  47.8670
     11    1 Ti   22      5.673810      1.891270      4.807511  12.0000  47.8670
     12    1 Ti   22     11.347620      0.000000      0.000000  12.0000  47.8670
     13    1 Ti   22      3.782540      0.000000      0.000000  12.0000  47.8670
     14    1 Ti   22     13.238889      1.891270      4.807511  12.0000  47.8670
     15    1 Ti   22     13.238889      0.000000      7.211266  12.0000  47.8670
     16    1 Ti   22      3.782540      1.891270      2.403755  12.0000  47.8670
     17    1 Ti   22      1.891270      5.673810      4.807511  12.0000  47.8670
     18    1 Ti   22      0.000000     11.347620      0.000000  12.0000  47.8670
     19    1 Ti   22      0.000000      5.673810      2.403755  12.0000  47.8670
     20    1 Ti   22      1.891270     11.347620      7.211266  12.0000  47.8670
     21    1 Ti   22      0.000000      7.565080      0.000000  12.0000  47.8670
     22    1 Ti   22      1.891270      9.456350      4.807511  12.0000  47.8670
     23    1 Ti   22      7.565080      1.891270      2.403755  12.0000  47.8670
     24    1 Ti   22      9.456350      0.000000      7.211266  12.0000  47.8670
     25    1 Ti   22      1.891270      7.565080      7.211266  12.0000  47.8670
     26    1 Ti   22      0.000000      9.456350      2.403755  12.0000  47.8670
     27    1 Ti   22      9.456350      1.891270      4.807511  12.0000  47.8670
     28    1 Ti   22      7.565080      0.000000      0.000000  12.0000  47.8670
     29    1 Ti   22      3.782540      3.782540      0.000000  12.0000  47.8670
     30    1 Ti   22     13.238889     13.238889      4.807511  12.0000  47.8670
     31    1 Ti   22     11.347620      5.673810      2.403755  12.0000  47.8670
     32    1 Ti   22      5.673810     11.347620      7.211266  12.0000  47.8670
     33    1 Ti   22     13.238889      3.782540      7.211266  12.0000  47.8670
     34    1 Ti   22      3.782540     13.238889      2.403755  12.0000  47.8670
     35    1 Ti   22      5.673810      5.673810      4.807511  12.0000  47.8670
     36    1 Ti   22     11.347620     11.347620      0.000000  12.0000  47.8670
     37    1 Ti   22     11.347620     13.238889      2.403755  12.0000  47.8670
     38    1 Ti   22      5.673810      3.782540      7.211266  12.0000  47.8670
     39    1 Ti   22      3.782540     11.347620      0.000000  12.0000  47.8670
     40    1 Ti   22     13.238889      5.673810      4.807511  12.0000  47.8670
     41    1 Ti   22      5.673810     13.238889      4.807511  12.0000  47.8670
     42    1 Ti   22     11.347620      3.782540      0.000000  12.0000  47.8670
     43    1 Ti   22     13.238889     11.347620      7.211266  12.0000  47.8670
     44    1 Ti   22      3.782540      5.673810      2.403755  12.0000  47.8670
     45    1 Ti   22      3.782540      7.565080      0.000000  12.0000  47.8670
     46    1 Ti   22     13.238889      9.456350      4.807511  12.0000  47.8670
     47    1 Ti   22      7.565080      5.673810      2.403755  12.0000  47.8670
     48    1 Ti   22      9.456350     11.347620      7.211266  12.0000  47.8670
     49    1 Ti   22     13.238889      7.565080      7.211266  12.0000  47.8670
     50    1 Ti   22      3.782540      9.456350      2.403755  12.0000  47.8670
     51    1 Ti   22      9.456350      5.673810      4.807511  12.0000  47.8670
     52    1 Ti   22      7.565080     11.347620      0.000000  12.0000  47.8670
     53    1 Ti   22     11.347620      9.456350      2.403755  12.0000  47.8670
     54    1 Ti   22      5.673810      7.565080      7.211266  12.0000  47.8670
     55    1 Ti   22      5.673810      9.456350      4.807511  12.0000  47.8670
     56    1 Ti   22     11.347620      7.565080      0.000000  12.0000  47.8670
     57    1 Ti   22      9.456350      3.782540      7.211266  12.0000  47.8670
     58    1 Ti   22      7.565080     13.238889      2.403755  12.0000  47.8670
     59    1 Ti   22      7.565080      3.782540      0.000000  12.0000  47.8670
     60    1 Ti   22      9.456350     13.238889      4.807511  12.0000  47.8670
     61    1 Ti   22      7.565080      7.565080      0.000000  12.0000  47.8670
     62    1 Ti   22      9.456350      9.456350      4.807511  12.0000  47.8670
     63    1 Ti   22      7.565080      9.456350      2.403755  12.0000  47.8670
     64    1 Ti   22      9.456350      7.565080      7.211266  12.0000  47.8670
     65    2 O     8      0.000000      0.000000      1.991771   6.0000  15.9994
     66    2 O     8      1.891270      1.891270      6.799282   6.0000  15.9994
     67    2 O     8      0.000000      1.891270      4.395526   6.0000  15.9994
     68    2 O     8      1.891270      0.000000      9.203037   6.0000  15.9994
     69    2 O     8      1.891270      0.000000      5.219495   6.0000  15.9994
     70    2 O     8      0.000000      1.891270      0.411985   6.0000  15.9994
     71    2 O     8      1.891270      1.891270      2.815740   6.0000  15.9994
     72    2 O     8      0.000000      0.000000      7.623251   6.0000  15.9994
     73    2 O     8      0.000000      3.782540      1.991771   6.0000  15.9994
     74    2 O     8      1.891270     13.238889      6.799282   6.0000  15.9994
     75    2 O     8     11.347620      1.891270      4.395526   6.0000  15.9994
     76    2 O     8      5.673810      0.000000      9.203037   6.0000  15.9994
     77    2 O     8      1.891270      3.782540      5.219495   6.0000  15.9994
     78    2 O     8      0.000000     13.238889      0.411985   6.0000  15.9994
     79    2 O     8      5.673810      1.891270      2.815740   6.0000  15.9994
     80    2 O     8     11.347620      0.000000      7.623251   6.0000  15.9994
     81    2 O     8      3.782540      0.000000      7.623251   6.0000  15.9994
     82    2 O     8     13.238889      1.891270      2.815740   6.0000  15.9994
     83    2 O     8     13.238889      0.000000      9.203037   6.0000  15.9994
     84    2 O     8      3.782540      1.891270      4.395526   6.0000  15.9994
     85    2 O     8      1.891270      5.673810      6.799282   6.0000  15.9994
     86    2 O     8      0.000000     11.347620      1.991771   6.0000  15.9994
     87    2 O     8      0.000000      5.673810      0.411985   6.0000  15.9994
     88    2 O     8      1.891270     11.347620      5.219495   6.0000  15.9994
     89    2 O     8      0.000000      7.565080      1.991771   6.0000  15.9994
     90    2 O     8      1.891270      9.456350      6.799282   6.0000  15.9994
     91    2 O     8      7.565080      1.891270      4.395526   6.0000  15.9994
     92    2 O     8      9.456350      0.000000      9.203037   6.0000  15.9994
     93    2 O     8      1.891270      7.565080      5.219495   6.0000  15.9994
     94    2 O     8      0.000000      9.456350      0.411985   6.0000  15.9994
     95    2 O     8      9.456350      1.891270      2.815740   6.0000  15.9994
     96    2 O     8      7.565080      0.000000      7.623251   6.0000  15.9994
     97    2 O     8      3.782540      0.000000      1.991771   6.0000  15.9994
     98    2 O     8     13.238889      1.891270      6.799282   6.0000  15.9994
     99    2 O     8      0.000000      5.673810      4.395526   6.0000  15.9994
    100    2 O     8      1.891270     11.347620      9.203037   6.0000  15.9994
    101    2 O     8     13.238889      0.000000      5.219495   6.0000  15.9994
    102    2 O     8      3.782540      1.891270      0.411985   6.0000  15.9994
    103    2 O     8      1.891270      5.673810      2.815740   6.0000  15.9994
    104    2 O     8      0.000000     11.347620      7.623251   6.0000  15.9994
    105    2 O     8     11.347620      1.891270      0.411985   6.0000  15.9994
    106    2 O     8      5.673810      0.000000      5.219495   6.0000  15.9994
    107    2 O     8      5.673810      1.891270      6.799282   6.0000  15.9994
    108    2 O     8     11.347620      0.000000      1.991771   6.0000  15.9994
    109    2 O     8      1.891270      3.782540      9.203037   6.0000  15.9994
    110    2 O     8      0.000000     13.238889      4.395526   6.0000  15.9994
    111    2 O     8      0.000000      3.782540      7.623251   6.0000  15.9994
    112    2 O     8      1.891270     13.238889      2.815740   6.0000  15.9994
    113    2 O     8      3.782540      3.782540      1.991771   6.0000  15.9994
    114    2 O     8     13.238889     13.238889      6.799282   6.0000  15.9994
    115    2 O     8     11.347620      5.673810      4.395526   6.0000  15.9994
    116    2 O     8      5.673810     11.347620      9.203037   6.0000  15.9994
    117    2 O     8     13.238889      3.782540      5.219495   6.0000  15.9994
    118    2 O     8      3.782540     13.238889      0.411985   6.0000  15.9994
    119    2 O     8      5.673810      5.673810      2.815740   6.0000  15.9994
    120    2 O     8     11.347620     11.347620      7.623251   6.0000  15.9994
    121    2 O     8     11.347620     13.238889      0.411985   6.0000  15.9994
    122    2 O     8      5.673810      3.782540      5.219495   6.0000  15.9994
    123    2 O     8      3.782540     11.347620      7.623251   6.0000  15.9994
    124    2 O     8     13.238889      5.673810      2.815740   6.0000  15.9994
    125    2 O     8      5.673810     13.238889      6.799282   6.0000  15.9994
    126    2 O     8     11.347620      3.782540      1.991771   6.0000  15.9994
    127    2 O     8     13.238889     11.347620      9.203037   6.0000  15.9994
    128    2 O     8      3.782540      5.673810      4.395526   6.0000  15.9994
    129    2 O     8      5.673810      5.673810      6.799282   6.0000  15.9994
    130    2 O     8     11.347620     11.347620      1.991771   6.0000  15.9994
    131    2 O     8     13.238889      3.782540      9.203037   6.0000  15.9994
    132    2 O     8      3.782540     13.238889      4.395526   6.0000  15.9994
    133    2 O     8     11.347620      5.673810      0.411985   6.0000  15.9994
    134    2 O     8      5.673810     11.347620      5.219495   6.0000  15.9994
    135    2 O     8      3.782540      3.782540      7.623251   6.0000  15.9994
    136    2 O     8     13.238889     13.238889      2.815740   6.0000  15.9994
    137    2 O     8     13.238889     11.347620      5.219495   6.0000  15.9994
    138    2 O     8      3.782540      5.673810      0.411985   6.0000  15.9994
    139    2 O     8      5.673810     13.238889      2.815740   6.0000  15.9994
    140    2 O     8     11.347620      3.782540      7.623251   6.0000  15.9994
    141    2 O     8      3.782540     11.347620      1.991771   6.0000  15.9994
    142    2 O     8     13.238889      5.673810      6.799282   6.0000  15.9994
    143    2 O     8     11.347620     13.238889      4.395526   6.0000  15.9994
    144    2 O     8      5.673810      3.782540      9.203037   6.0000  15.9994
    145    2 O     8      3.782540      7.565080      1.991771   6.0000  15.9994
    146    2 O     8     13.238889      9.456350      6.799282   6.0000  15.9994
    147    2 O     8      7.565080      5.673810      4.395526   6.0000  15.9994
    148    2 O     8      9.456350     11.347620      9.203037   6.0000  15.9994
    149    2 O     8     13.238889      7.565080      5.219495   6.0000  15.9994
    150    2 O     8      3.782540      9.456350      0.411985   6.0000  15.9994
    151    2 O     8      9.456350      5.673810      2.815740   6.0000  15.9994
    152    2 O     8      7.565080     11.347620      7.623251   6.0000  15.9994
    153    2 O     8     11.347620      9.456350      0.411985   6.0000  15.9994
    154    2 O     8      5.673810      7.565080      5.219495   6.0000  15.9994
    155    2 O     8      5.673810      9.456350      6.799282   6.0000  15.9994
    156    2 O     8     11.347620      7.565080      1.991771   6.0000  15.9994
    157    2 O     8      9.456350      3.782540      9.203037   6.0000  15.9994
    158    2 O     8      7.565080     13.238889      4.395526   6.0000  15.9994
    159    2 O     8      7.565080      3.782540      7.623251   6.0000  15.9994
    160    2 O     8      9.456350     13.238889      2.815740   6.0000  15.9994
    161    2 O     8      7.565080      0.000000      1.991771   6.0000  15.9994
    162    2 O     8      9.456350      1.891270      6.799282   6.0000  15.9994
    163    2 O     8      0.000000      9.456350      4.395526   6.0000  15.9994
    164    2 O     8      1.891270      7.565080      9.203037   6.0000  15.9994
    165    2 O     8      9.456350      0.000000      5.219495   6.0000  15.9994
    166    2 O     8      7.565080      1.891270      0.411985   6.0000  15.9994
    167    2 O     8      1.891270      9.456350      2.815740   6.0000  15.9994
    168    2 O     8      0.000000      7.565080      7.623251   6.0000  15.9994
    169    2 O     8      7.565080      3.782540      1.991771   6.0000  15.9994
    170    2 O     8      9.456350     13.238889      6.799282   6.0000  15.9994
    171    2 O     8     11.347620      9.456350      4.395526   6.0000  15.9994
    172    2 O     8      5.673810      7.565080      9.203037   6.0000  15.9994
    173    2 O     8      9.456350      3.782540      5.219495   6.0000  15.9994
    174    2 O     8      7.565080     13.238889      0.411985   6.0000  15.9994
    175    2 O     8      5.673810      9.456350      2.815740   6.0000  15.9994
    176    2 O     8     11.347620      7.565080      7.623251   6.0000  15.9994
    177    2 O     8      3.782540      7.565080      7.623251   6.0000  15.9994
    178    2 O     8     13.238889      9.456350      2.815740   6.0000  15.9994
    179    2 O     8     13.238889      7.565080      9.203037   6.0000  15.9994
    180    2 O     8      3.782540      9.456350      4.395526   6.0000  15.9994
    181    2 O     8      9.456350      5.673810      6.799282   6.0000  15.9994
    182    2 O     8      7.565080     11.347620      1.991771   6.0000  15.9994
    183    2 O     8      7.565080      5.673810      0.411985   6.0000  15.9994
    184    2 O     8      9.456350     11.347620      5.219495   6.0000  15.9994
    185    2 O     8      7.565080      7.565080      1.991771   6.0000  15.9994
    186    2 O     8      9.456350      9.456350      6.799282   6.0000  15.9994
    187    2 O     8      7.565080      9.456350      4.395526   6.0000  15.9994
    188    2 O     8      9.456350      7.565080      9.203037   6.0000  15.9994
    189    2 O     8      9.456350      7.565080      5.219495   6.0000  15.9994
    190    2 O     8      7.565080      9.456350      0.411985   6.0000  15.9994
    191    2 O     8      9.456350      9.456350      2.815740   6.0000  15.9994
    192    2 O     8      7.565080      7.565080      7.623251   6.0000  15.9994



 SCF PARAMETERS         Density guess:                                   RESTART
                        --------------------------------------------------------
                        max_scf:                                              40
                        max_scf_history:                                       0
                        max_diis:                                              4
                        --------------------------------------------------------
                        eps_scf:                                        1.00E-06
                        eps_scf_history:                                0.00E+00
                        eps_diis:                                       1.00E-01
                        eps_eigval:                                     1.00E-05
                        --------------------------------------------------------
                        level_shift [a.u.]:                             0.000000
                        --------------------------------------------------------
                        Outer loop SCF in use 
                        No variables optimised in outer loop
                        eps_scf                                         1.00E-06
                        max_scf                                               60
                        No outer loop optimization
                        step_size                                       5.00E-01

 PW_GRID| Information for grid number                                          1
 PW_GRID| Grid distributed over                                   128 processors
 PW_GRID| Real space group dimensions                                   128    1
 PW_GRID| the grid is blocked:                                                NO
 PW_GRID| Cutoff [a.u.]                                                    300.0
 PW_GRID| spherical cutoff:                                                   NO
 PW_GRID|   Bounds   1           -112     112                Points:         225
 PW_GRID|   Bounds   2           -112     112                Points:         225
 PW_GRID|   Bounds   3            -72      71                Points:         144
 PW_GRID| Volume element (a.u.^3)  0.2035E-02     Volume (a.u.^3)     14833.7304
 PW_GRID| Grid span                                                    FULLSPACE
 PW_GRID|   Distribution                         Average         Max         Min
 PW_GRID|   G-Vectors                            56953.1       57150       56925
 PW_GRID|   G-Rays                                 253.1         254         253
 PW_GRID|   Real Space Points                    56953.1       64800       32400

 PW_GRID| Information for grid number                                          2
 PW_GRID| Number of the reference grid                                         1
 PW_GRID| Grid distributed over                                   128 processors
 PW_GRID| Real space group dimensions                                   128    1
 PW_GRID| the grid is blocked:                                                NO
 PW_GRID| Cutoff [a.u.]                                                    100.0
 PW_GRID| spherical cutoff:                                                   NO
 PW_GRID|   Bounds   1            -67      67                Points:         135
 PW_GRID|   Bounds   2            -67      67                Points:         135
 PW_GRID|   Bounds   3            -40      40                Points:          81
 PW_GRID| Volume element (a.u.^3)  0.1005E-01     Volume (a.u.^3)     14833.7304
 PW_GRID| Grid span                                                    FULLSPACE
 PW_GRID|   Distribution                         Average         Max         Min
 PW_GRID|   G-Vectors                            11533.0       12150       10800
 PW_GRID|   G-Rays                                  85.4          90          80
 PW_GRID|   Real Space Points                    11533.0       21870       10935

 PW_GRID| Information for grid number                                          3
 PW_GRID| Number of the reference grid                                         1
 PW_GRID| Grid distributed over                                   128 processors
 PW_GRID| Real space group dimensions                                     8   16
 PW_GRID| the grid is blocked:                                                NO
 PW_GRID| Cutoff [a.u.]                                                     33.3
 PW_GRID| spherical cutoff:                                                   NO
 PW_GRID|   Bounds   1            -37      37                Points:          75
 PW_GRID|   Bounds   2            -37      37                Points:          75
 PW_GRID|   Bounds   3            -24      23                Points:          48
 PW_GRID| Volume element (a.u.^3)  0.5494E-01     Volume (a.u.^3)     14833.7304
 PW_GRID| Grid span                                                    FULLSPACE
 PW_GRID|   Distribution                         Average         Max         Min
 PW_GRID|   G-Vectors                             2109.4        2475        1725
 PW_GRID|   G-Rays                                  28.1          33          23
 PW_GRID|   Real Space Points                     2109.4        2400        1728

 PW_GRID| Information for grid number                                          4
 PW_GRID| Number of the reference grid                                         1
 PW_GRID| Grid distributed over                                   128 processors
 PW_GRID| Real space group dimensions                                     8   16
 PW_GRID| the grid is blocked:                                                NO
 PW_GRID| Cutoff [a.u.]                                                     11.1
 PW_GRID| spherical cutoff:                                                   NO
 PW_GRID|   Bounds   1            -22      22                Points:          45
 PW_GRID|   Bounds   2            -22      22                Points:          45
 PW_GRID|   Bounds   3            -13      13                Points:          27
 PW_GRID| Volume element (a.u.^3)  0.2713         Volume (a.u.^3)     14833.7304
 PW_GRID| Grid span                                                    FULLSPACE
 PW_GRID|   Distribution                         Average         Max         Min
 PW_GRID|   G-Vectors                              427.1         585         270
 PW_GRID|   G-Rays                                   9.5          13           6
 PW_GRID|   Real Space Points                      427.1         486         270

 POISSON| Solver                                                        PERIODIC
 POISSON| Periodicity                                                        XYZ

 RS_GRID| Information for grid number                                          1
 RS_GRID|   Bounds   1           -112     112                Points:         225
 RS_GRID|   Bounds   2           -112     112                Points:         225
 RS_GRID|   Bounds   3            -72      71                Points:         144
 RS_GRID| Real space distribution over                                  8 groups
 RS_GRID| Real space distribution along direction                              1
 RS_GRID| Border size                                                         26
 RS_GRID| Real space distribution over                                 16 groups
 RS_GRID| Real space distribution along direction                              2
 RS_GRID| Border size                                                         26
 RS_GRID|   Distribution                         Average         Max         Min
 RS_GRID|   Planes                                  80.1          81          80
 RS_GRID|   Distribution                         Average         Max         Min
 RS_GRID|   Planes                                  66.1          67          66

 RS_GRID| Information for grid number                                          2
 RS_GRID|   Bounds   1            -67      67                Points:         135
 RS_GRID|   Bounds   2            -67      67                Points:         135
 RS_GRID|   Bounds   3            -40      40                Points:          81
 RS_GRID| Real space distribution over                                  8 groups
 RS_GRID| Real space distribution along direction                              1
 RS_GRID| Border size                                                         24
 RS_GRID| Real space distribution over                                 16 groups
 RS_GRID| Real space distribution along direction                              2
 RS_GRID| Border size                                                         24
 RS_GRID|   Distribution                         Average         Max         Min
 RS_GRID|   Planes                                  64.9          65          64
 RS_GRID|   Distribution                         Average         Max         Min
 RS_GRID|   Planes                                  56.4          57          56

 RS_GRID| Information for grid number                                          3
 RS_GRID|   Bounds   1            -37      37                Points:          75
 RS_GRID|   Bounds   2            -37      37                Points:          75
 RS_GRID|   Bounds   3            -24      23                Points:          48
 RS_GRID| Real space fully replicated
 RS_GRID| Group size                                                           1

 RS_GRID| Information for grid number                                          4
 RS_GRID|   Bounds   1            -22      22                Points:          45
 RS_GRID|   Bounds   2            -22      22                Points:          45
 RS_GRID|   Bounds   3            -13      13                Points:          27
 RS_GRID| Real space fully replicated
 RS_GRID| Group size                                                           1

 BFGS| Use rational function optimization for step estimation:                NO
 BFGS| Use model Hessian for initial guess:                                  YES
 BFGS| Restart Hessian:                                                       NO
 BFGS| Trust radius:                                                       0.472

 *******************************************************************************
 ***                     STARTING GEOMETRY OPTIMIZATION                      ***
 ***                                   BFGS                                  ***
 *******************************************************************************

 Spin 1

 Number of electrons:                                                        768
 Number of occupied orbitals:                                                768
 Number of molecular orbitals:                                               768

 Spin 2

 Number of electrons:                                                        768
 Number of occupied orbitals:                                                768
 Number of molecular orbitals:                                               768

 Number of orbital functions:                                               3328
 Number of independent orbital functions:                                   3328

 Extrapolation method: initial_guess

 *** WARNING in qs_initial_guess.F:306 :: User requested to restart the    ***
 *** wavefunction from the file named: tio2-RESTART.wfn. This file does    ***
 *** not exist. Please check the existence of the file or change properly  ***
 *** the value of the keyword WFN_RESTART_FILE_NAME. Calculation continues ***
 *** using ATOMIC GUESS.                                                   ***


 Atomic guess: The first density matrix is obtained in terms of atomic orbitals
               and electronic configurations assigned to each atomic kind

 Guess for atomic kind: Ti

 Electronic structure
    Total number of core electrons                                         10.00
    Total number of valence electrons                                      12.00
    Total number of electrons                                              22.00
    Multiplicity                                                   not specified
    S   [  2.00  2.00] 2.00  2.00
    P   [  6.00] 6.00
    D      2.00


 *******************************************************************************
                  Iteration          Convergence                     Energy [au]
 *******************************************************************************
                          1         2.59099                     -56.573945749309
                          2        0.737518                     -57.461623245624
                          3        0.123244E-01                 -57.676656834797
                          4        0.338536E-02                 -57.676690535970
                          5        0.252157E-03                 -57.676697146183
                          6        0.162704E-05                 -57.676697160103
                          7        0.846593E-06                 -57.676697160104

 Energy components [Hartree]           Total Energy ::          -57.676697160104
                                        Band Energy ::          -13.440549799540
                                     Kinetic Energy ::           25.008468428381
                                   Potential Energy ::          -82.685165588485
                                      Virial (-V/T) ::            3.306286661467
                                        Core Energy ::          -97.155838374470
                                          XC Energy ::           -6.919409696495
                                     Coulomb Energy ::           46.398550910862
                       Total Pseudopotential Energy ::         -122.259340742080
                       Local Pseudopotential Energy ::         -118.928992669456
                    Nonlocal Pseudopotential Energy ::           -3.330348072625
                                        Confinement ::            0.950339392289

 Orbital energies  State     L     Occupation   Energy[a.u.]          Energy[eV]

                       1     0          2.000      -2.312566          -62.928123
                       2     0          2.000      -0.123060           -3.348633

                       1     1          6.000      -1.385567          -37.703193

                       1     2          2.000      -0.127948           -3.481643


 Total Electron Density at R=0:                                         0.004726

 Guess for atomic kind: O

 Electronic structure
    Total number of core electrons                                          2.00
    Total number of valence electrons                                       6.00
    Total number of electrons                                               8.00
    Multiplicity                                                   not specified
    S   [  2.00] 2.00
    P      4.00


 *******************************************************************************
                  Iteration          Convergence                     Energy [au]
 *******************************************************************************
                          1        0.702811                     -15.577904332270
                          2        0.612408                     -15.588447180504
                          3        0.955344E-02                 -15.655871208406
                          4        0.223754E-02                 -15.655885053552
                          5        0.157183E-02                 -15.655885461027
                          6        0.124953E-02                 -15.655885607150
                          7        0.312011E-06                 -15.655885858066

 Energy components [Hartree]           Total Energy ::          -15.655885858066
                                        Band Energy ::           -2.983128125584
                                     Kinetic Energy ::           11.754765134683
                                   Potential Energy ::          -27.410650992749
                                      Virial (-V/T) ::            2.331875684345
                                        Core Energy ::          -26.153522949072
                                          XC Energy ::           -3.157392363346
                                     Coulomb Energy ::           13.655029454351
                       Total Pseudopotential Energy ::          -37.943026860963
                       Local Pseudopotential Energy ::          -39.220419683052
                    Nonlocal Pseudopotential Energy ::            1.277392822089
                                        Confinement ::            0.347387772086

 Orbital energies  State     L     Occupation   Energy[a.u.]          Energy[eV]

                       1     0          2.000      -0.861522          -23.443215

                       1     1          4.000      -0.315021           -8.572154


 Total Electron Density at R=0:                                         0.000093

 Spin 1
 Re-scaling the density matrix to get the right number of electrons for spin 1
                  # Electrons              Trace(P)               Scaling factor
                          768               768.001                        1.000

 Spin 2
 Re-scaling the density matrix to get the right number of electrons for spin 2
                  # Electrons              Trace(P)               Scaling factor
                          768               768.001                        1.000


 SCF WAVEFUNCTION OPTIMIZATION

  ----------------------------------- OT ---------------------------------------
  Minimizer      : DIIS                : direct inversion
                                         in the iterative subspace
                                         using   7 DIIS vectors
                                         safer DIIS on
  Preconditioner : FULL_SINGLE_INVERSE : inversion of 
                                         H + eS - 2*(Sc)(c^T*H*c+const)(Sc)^T
  Precond_solver : DEFAULT
  stepsize       :    0.08000000                  energy_gap     :    0.08000000
  eps_taylor     :   0.10000E-15                  max_taylor     :             4
  ----------------------------------- OT ---------------------------------------

  Step     Update method      Time    Convergence         Total energy    Change
  ------------------------------------------------------------------------------
     1 OT DIIS     0.80E-01    2.0     0.00993525     -5646.4949823689 -5.65E+03
     2 OT DIIS     0.80E-01    1.5     0.00721596     -5680.7305128295 -3.42E+01
     3 OT DIIS     0.80E-01    1.5     0.00468311     -5712.5442154798 -3.18E+01
     4 OT DIIS     0.80E-01    1.5     0.00368159     -5723.0266587628 -1.05E+01
     5 OT DIIS     0.80E-01    1.5     0.00267469     -5734.4177273649 -1.14E+01
     6 OT DIIS     0.80E-01    1.5     0.00219485     -5741.2485499892 -6.83E+00
     7 OT DIIS     0.80E-01    1.5     0.00185381     -5747.0923085740 -5.84E+00
     8 OT DIIS     0.80E-01    1.5     0.00148587     -5752.8166449015 -5.72E+00
     9 OT DIIS     0.80E-01    1.5     0.00126888     -5756.5005249364 -3.68E+00
    10 OT DIIS     0.80E-01    1.5     0.00099051     -5759.6994498801 -3.20E+00
    11 OT DIIS     0.80E-01    1.5     0.00090377     -5760.5008007626 -8.01E-01
    12 OT DIIS     0.80E-01    1.5     0.00073584     -5762.2293707946 -1.73E+00
    13 OT DIIS     0.80E-01    1.5     0.00059517     -5763.6063326007 -1.38E+00
    14 OT DIIS     0.80E-01    1.5     0.00049185     -5764.5205086979 -9.14E-01
    15 OT DIIS     0.80E-01    1.5     0.00044072     -5764.9756867512 -4.55E-01
    16 OT DIIS     0.80E-01    1.5     0.00037615     -5765.4664079050 -4.91E-01
    17 OT DIIS     0.80E-01    1.5     0.00034832     -5765.7082309445 -2.42E-01
    18 OT DIIS     0.80E-01    1.5     0.00030173     -5766.0309681379 -3.23E-01
    19 OT DIIS     0.80E-01    1.5     0.00026963     -5766.2375517758 -2.07E-01
    20 OT DIIS     0.80E-01    1.5     0.00025371     -5766.3377188006 -1.00E-01
    21 OT DIIS     0.80E-01    1.5     0.00021981     -5766.5583289228 -2.21E-01
    22 OT DIIS     0.80E-01    1.5     0.00019686     -5766.7040178329 -1.46E-01
    23 OT DIIS     0.80E-01    1.6     0.00018252     -5766.8187283174 -1.15E-01
    24 OT DIIS     0.80E-01    1.5     0.00016740     -5766.8824549287 -6.37E-02
    25 OT DIIS     0.80E-01    1.5     0.00015808     -5766.9445389617 -6.21E-02
    26 OT DIIS     0.80E-01    1.5     0.00014474     -5767.0114385297 -6.69E-02
    27 OT DIIS     0.80E-01    1.5     0.00013800     -5767.0834279003 -7.20E-02
    28 OT DIIS     0.80E-01    1.5     0.00013035     -5767.1051170372 -2.17E-02
    29 OT DIIS     0.80E-01    1.5     0.00012286     -5767.1473479310 -4.22E-02
    30 OT DIIS     0.80E-01    1.5     0.00012375     -5767.1582228791 -1.09E-02
    31 OT DIIS     0.80E-01    1.5     0.00011825     -5767.1786401833 -2.04E-02
    32 OT DIIS     0.80E-01    1.5     0.00011090     -5767.2279483902 -4.93E-02
    33 OT DIIS     0.80E-01    1.5     0.00010238     -5767.2692657941 -4.13E-02
    34 OT DIIS     0.80E-01    1.5     0.00010139     -5767.2848866339 -1.56E-02
    35 OT DIIS     0.80E-01    1.6     0.00009705     -5767.2975076126 -1.26E-02
    36 OT DIIS     0.80E-01    1.5     0.00009293     -5767.3256714857 -2.82E-02
    37 OT DIIS     0.80E-01    1.5     0.00009173     -5767.3393508341 -1.37E-02
    38 OT SD       0.80E-01    1.5     0.00009214     -5767.3453042646 -5.95E-03
    39 OT DIIS     0.80E-01    1.5     0.00009185     -5767.3487694968 -3.47E-03
    40 OT DIIS     0.80E-01    1.5     0.00009028     -5767.3576857752 -8.92E-03

  Leaving inner SCF loop after reaching    40 steps.


  Electronic density on regular grids:      -1535.9999999999        0.0000000001
  Core density on regular grids:             1535.9999999995       -0.0000000005
  Total charge density on r-space grids:       -0.0000000004
  Total charge density g-space grids:          -0.0000000004

  Overlap energy of the core charge distribution:               0.00000000000325
  Self energy of the core charge distribution:             -12156.89556134359555
  Core Hamiltonian energy:                                   3316.99244643717702
  Hartree energy:                                            3985.30912034853282
  Exchange-correlation energy:                               -931.91374099815903

  DFT+U energy:                                                19.15004978085302

  Total energy:                                             -5767.35768577518775

  outer SCF iter =    1 RMS gradient =   0.90E-04 energy =      -5767.3576857752

  ----------------------------------- OT ---------------------------------------
  Minimizer      : DIIS                : direct inversion
                                         in the iterative subspace
                                         using   7 DIIS vectors
                                         safer DIIS on
[...]
 flops   416 x    64 x    32        1167291580416       0.0%    100.0%      0.0%     
 flops   416 x    32 x    64        1167291580416       0.0%    100.0%      0.0%     
 flops    96 x    32 x   208        1475697180672       0.0%    100.0%      0.0%     
 flops   416 x    32 x   208        1778472976384       0.0%    100.0%      0.0%     
 flops   416 x    64 x    64        2334583160832       0.0%    100.0%      0.0%     
 flops    13 x    32 x    13        2900562542592       0.0%    100.0%      0.0%     
 flops    96 x    64 x   208        2959123415040       0.0%    100.0%      0.0%     
 flops    26 x    32 x    26        2994129076224       0.0%    100.0%      0.0%     
 flops    26 x    32 x    13        2994129076224       0.0%    100.0%      0.0%     
 flops    13 x    32 x    26        2994129076224       0.0%    100.0%      0.0%     
 flops   416 x    64 x   208        3595223171072       0.0%    100.0%      0.0%     
 flops inhomo. stacks                    18273102     100.0%      0.0%      0.0%
 flops total                        31.557676E+12       0.0%    100.0%      0.0%
 flops max/rank                    330.037503E+09       0.0%    100.0%      0.0%
 matmuls inhomo. stacks                     26471     100.0%      0.0%      0.0%
 matmuls total                          786165031       0.0%    100.0%      0.0%
 number of processed stacks              19337703       0.1%     99.9%      0.0%
 average stack size                                     1.0      40.7       0.0
 marketing flops                    34.498169E+12
 -------------------------------------------------------------------------------
 # multiplications                          18678
 max memory usage/rank             376.913920E+06
 # max total images/rank                        2
 # max 3D layers                                1
 # MPI messages exchanged                69332736
 MPI messages size (bytes):
  total size                         6.224883E+12
  min size                           0.000000E+00
  max size                         692.224000E+03
  average size                      89.782750E+03
 MPI breakdown and total messages size (bytes):
             size <=      128            39265696                   950520
       128 < size <=     8192             2847072              14720252448
      8192 < size <=    32768             6709184             152926099600
     32768 < size <=   131072             8855424             692128972800
    131072 < size <=  4194304            11655360            5365394810880
   4194304 < size <= 16777216                   0                        0
  16777216 < size                               0                        0
 -------------------------------------------------------------------------------

 *** WARNING in dbcsr_mm.F:301 :: Using a non-square number of MPI ranks ***
 *** might lead to poor performance. Used ranks: 128 Suggested: 121 256  ***

 -------------------------------------------------------------------------------
 -                                                                             -
 -                      DBCSR MESSAGE PASSING PERFORMANCE                      -
 -                                                                             -
 -------------------------------------------------------------------------------
 ROUTINE             CALLS      AVE VOLUME [Bytes]
 MP_Bcast               50                     12.
 MP_Allreduce        94357                     13.
 MP_Alltoall         71400                  29834.
 MP_ISend          1173196                  44179.
 MP_IRecv          1169636                  43985.
 -------------------------------------------------------------------------------

 -------------------------------------------------------------------------------
 -                                                                             -
 -                                DBM STATISTICS                               -
 -                                                                             -
 -------------------------------------------------------------------------------
    M  x    N  x    K                                          COUNT     PERCENT
 -------------------------------------------------------------------------------

 -------------------------------------------------------------------------------
 -                                                                             -
 -                                GRID STATISTICS                              -
 -                                                                             -
 -------------------------------------------------------------------------------
 LP    KERNEL             BACKEND                              COUNT     PERCENT
 5     collocate ortho    CPU                               45129084      24.88%
 5     integrate ortho    CPU                               43789512      24.14%
 6     integrate ortho    CPU                               23836256      13.14%
 6     collocate ortho    CPU                               23076880      12.72%
 4     collocate ortho    CPU                               20570346      11.34%
 4     integrate ortho    CPU                               19571648      10.79%
 0     integrate general  CPU                                2752512       1.52%
 0     collocate general  CPU                                1548288       0.85%
 7     integrate ortho    CPU                                 961888       0.53%
 1     integrate general  CPU                                 147456       0.08%
 2     collocate ortho    CPU                                  17920       0.01%
 3     collocate ortho    CPU                                  10752       0.01%
 -------------------------------------------------------------------------------

 MEMORY| Estimated peak process memory [MiB]                                 360

 -------------------------------------------------------------------------------
 ----                             MULTIGRID INFO                            ----
 -------------------------------------------------------------------------------
 count for grid        1:        2100598          cutoff [a.u.]          300.00
 count for grid        2:        1913269          cutoff [a.u.]          100.00
 count for grid        3:        2258014          cutoff [a.u.]           33.33
 count for grid        4:        2324089          cutoff [a.u.]           11.11
 total gridlevel count  :        8595970

 -------------------------------------------------------------------------------
 -                                                                             -
 -                         MESSAGE PASSING PERFORMANCE                         -
 -                                                                             -
 -------------------------------------------------------------------------------

 ROUTINE             CALLS      AVE VOLUME [Bytes]
 MP_Group                4
 MP_Bcast            13841                  28881.
 MP_Allreduce        38215                    442.
 MP_Sync              2230
 MP_Alltoall          6164                2350822.
 MP_SendRecv         80264                  11544.
 MP_ISendRecv        72644                  11544.
 MP_Wait            109648
 MP_comm_split        1022
 MP_ISend            66516                  79530.
 MP_IRecv            66216                  79877.
 MP_Write_All           42                 355816.
 -------------------------------------------------------------------------------


 -------------------------------------------------------------------------------
 -                                                                             -
 -                           R E F E R E N C E S                               -
 -                                                                             -
 -------------------------------------------------------------------------------
 
 CP2K version 2024.3, the CP2K developers group (2024).
 CP2K is freely available from https://www.cp2k.org/ .
 
 T. D. Kuehne, M. Iannuzzi, M. Del Ben, V. V. Rybkin, P. Seewald, F. Stein, T. 
 Laino, R. Z. Khaliullin, O. Schuett, F. Schiffmann, D. Golze, J. Wilhelm, S. 
 Chulkov, M. H. Bani-Hashemian, V. Weber, U. Borstnik, M. Taillefumier, A. S. 
 Jakobovits, A. Lazzaro, H. Pabst, T. Mueller, R. Schade, M. Guidon, S. 
 Andermatt, N. Holmberg, G. K. Schenter, A. Hehn, A. Bussy, F. Belleflamme, G. 
 Tabacchi, A. Gloess, M. Lass, I. Bethune, C. J. Mundy, C. Plessl, M. Watkins, 
 J. VandeVondele, M. Krack, J. Hutter.
 J. Chem. Phys. 152, 194103 (2020).
 CP2K: An electronic structure and molecular dynamics software package - 
 Quickstep: Efficient and accurate electronic structure calculations.
 https://doi.org/10.1063/5.0007045

 O. Schuett, P. Messmer, J. Hutter, J. VandeVondele.
 Electronic Structure Calculations on Graphics Processing Units, 173-190 (2016).
 GPU-Accelerated Sparse Matrix-Matrix Multiplication for Linear Scaling Density 
 Functional Theory.
 https://doi.org/10.1002/9781118670712.ch8

 A. Heinecke, G. Henry, M. Hutchinson, H. Pabst.
 Proceedings of Intl. Supercomputing Conference, 981-991 (2016).
 LIBXSMM: Accelerating Small Matrix Multiplications by Runtime Code Generation.
 https://doi.org/10.1109/SC.2016.83

 J. Hutter, M. Iannuzzi, F. Schiffmann, J. VandeVondele.
 WIREs Comput Mol Sci. 4, 15-25 (2014).
 CP2K: atomistic simulations of condensed matter systems.
 https://doi.org/10.1002/wcms.1159

 U. Borstnik, J. VandeVondele, V. Weber, J. Hutter.
 Parallel Comput. 40, 47-58 (2014).
 Sparse matrix multiplication: The distributed block-compressed sparse row 
 library.
 https://doi.org/10.1016/j.parco.2014.03.012

 A. Marek, V. Blum, R. Johanni, V. Havu, B. Lang, T. Auckenthaler, A. Heinecke, 
 H. Bungartz, H. Lederer.
 J. Phys. Condens. Matter 26, 213201 (2014).
 The ELPA library: scalable parallel eigenvalue solutions for electronic 
 structure theory and computational science.
 https://doi.org/10.1088/0953-8984/26/21/213201

 J. VandeVondele, J. Hutter.
 J. Chem. Phys. 127, 114105 (2007).
 Gaussian basis sets for accurate calculations on molecular systems in gas and 
 condensed phases.
 https://doi.org/10.1063/1.2770708

 T. D. Khne, M. Krack, F. R. Mohamed, M. Parrinello.
 Phys. Rev. Lett. 98, 066401 (2007).
 Efficient and accurate Car-Parrinello-like approach to Born-Oppenheimer 
 molecular dynamics.
 https://doi.org/10.1103/PhysRevLett.98.066401

 J. VandeVondele, M. Krack, F. Mohamed, M. Parrinello, T. Chassaing, J. Hutter.
 Comput. Phys. Commun. 167, 103-128 (2005).
 QUICKSTEP: Fast and accurate density functional calculations using a mixed 
 Gaussian and plane waves approach.
 https://doi.org/10.1016/j.cpc.2004.12.014

 M. Krack.
 Theor. Chem. Acc. 114, 145-152 (2005).
 Pseudopotentials for H to Kr optimized for gradient-corrected 
 exchange-correlation functionals.
 https://doi.org/10.1007/s00214-005-0655-y

 M. Frigo, S. G. Johnson.
 Proc. IEEE 93, 216-231 (2005).
 The design and implementation of FFTW3.
 https://doi.org/10.1109/JPROC.2004.840301

 J. Kolafa.
 J. Comput. Chem. 25, 335-342 (2004).
 Time-reversible always stable predictor-corrector method for molecular dynamics 
 of polarizable molecules.
 https://doi.org/10.1002/jcc.10385

 J. VandeVondele, J. Hutter.
 J. Chem. Phys. 118, 4365-4369 (2003).
 An efficient orbital transformation method for electronic structure 
 calculations.
 https://doi.org/10.1063/1.1543154

 C. Hartwigsen, S. Goedecker, J. Hutter.
 Phys. Rev. B 58, 3641-3662 (1998).
 Relativistic separable dual-space Gaussian pseudopotentials from H to Rn.
 https://doi.org/10.1103/PhysRevB.58.3641

 S. L. Dudarev, G. A. Botton, S. Y. Savrasov, C. J. Humphreys, A. P. Sutton.
 Phys. Rev. B 57, 1505-1509 (1998).
 Electron-energy-loss spectra and the structural stability of nickel oxide: An 
 LSDA+U study.
 https://doi.org/10.1103/PhysRevB.57.1505

 G. Lippert, J. Hutter, M. Parrinello.
 Mol. Phys. 92, 477-487 (1997).
 A hybrid Gaussian and plane wave density functional scheme.
 https://doi.org/10.1080/002689797170220

 S. L. Dudarev, D. N. Manh, A. P. Sutton.
 Philos. Mag. B 75, 613-628 (1997).
 Effect of Mott-Hubbard correlations on the electronic structure and structural 
 stability of uranium dioxide.
 https://doi.org/10.1080/13642819708202343

 S. Goedecker, M. Teter, J. Hutter.
 Phys. Rev. B 54, 1703-1710 (1996).
 Separable dual-space Gaussian pseudopotentials.
 https://doi.org/10.1103/PhysRevB.54.1703

 J. P. Perdew, K. Burke, M. Ernzerhof.
 Phys. Rev. Lett. 77, 3865-3868 (1996).
 Generalized gradient approximation made simple.
 https://doi.org/10.1103/PhysRevLett.77.3865


 -------------------------------------------------------------------------------
 -                                                                             -
 -                                T I M I N G                                  -
 -                                                                             -
 -------------------------------------------------------------------------------
 SUBROUTINE                       CALLS  ASD         SELF TIME        TOTAL TIME
                                MAXIMUM       AVERAGE  MAXIMUM  AVERAGE  MAXIMUM
 CP2K                                 1  1.0    0.077    0.084  289.017  289.022
 cp_geo_opt                           1  2.0    0.003    0.005  288.305  288.308
 geoopt_bfgs                          1  3.0    0.027    0.036  288.302  288.306
 cp_eval_at                           7  4.0    0.005    0.009  287.390  287.393
 qs_energies                          7  5.9    0.006    0.010  271.709  271.718
 qs_forces                            6  5.0    0.013    0.016  264.404  264.408
 scf_env_do_scf                       7  6.9    0.005    0.008  199.073  199.075
 scf_env_do_scf_inner_loop          137  7.9    0.009    0.031  188.407  188.667
 rebuild_ks_matrix                  143  9.8    0.002    0.003  104.145  104.404
 qs_ks_build_kohn_sham_matrix       143 10.8    0.037    0.044  104.143  104.403
 qs_ks_update_qs_env                145  8.9    0.002    0.004   97.496   97.744
 dbcsr_multiply_generic           18678 12.4    0.630    0.653   70.087   71.843
 sum_up_and_integrate               143 11.8    0.008    0.012   66.291   66.323
 integrate_v_rspace                 286 12.8    0.012    0.016   66.116   66.214
 scf_post_calculation_gpw             7  6.9    0.004    0.006   62.933   62.936
 qs_rho_update_rho_low              144  9.0    0.002    0.003   59.103   59.120
 calculate_rho_elec                 288 10.0    0.107    0.122   59.101   59.119
 multiply_cannon                  18678 13.4    3.745    4.030   46.343   52.229
 grid_integrate_task_list           286 13.8   47.860   49.906   47.860   49.906
 grid_collocate_task_list           288 11.0   42.722   44.368   42.722   44.368
 multiply_cannon_loop             18678 14.4    1.353    1.394   37.928   43.613
 qs_scf_new_mos                     137  8.9    0.001    0.001   39.720   40.065
 qs_scf_loop_do_ot                  137  9.9    0.001    0.003   39.719   40.064
 ot_scf_mini                        137 10.9    0.005    0.007   36.709   36.956
 fft_wrap_pw1pw2                   4876 14.1    0.095    0.116   31.943   35.886
 make_lumo_gpw                        7  7.9    0.002    0.002   35.455   35.458
 ot_eigensolver                      14  8.9    0.016    0.018   35.330   35.331
 ot_mini                           1047 10.1    0.013    0.016   33.619   33.938
 fft_wrap_pw1pw2_300               3070 15.6    1.215    1.328   29.634   33.659
 qs_vxc_create                      143 11.8    0.004    0.006   30.086   30.324
 xc_vxc_pw_create                   143 12.8    0.548    0.704   30.082   30.321
 fft3d_ps                          4876 16.1    9.564   10.668   25.115   29.699
 mp_waitall_1                   2171940 16.5   21.055   28.919   21.055   28.919
 multiply_cannon_multrec         298848 15.4   14.240   24.736   14.304   24.800
 multiply_cannon_metrocomm3      298848 15.4    0.717    0.737   15.445   24.693
 qs_ot_get_derivative               736 11.6    0.005    0.006   24.323   24.508
 xc_pw_derive                      1716 14.8    0.016    0.018   20.309   23.813
 write_available_results              7  7.9    0.003    0.003   21.237   21.260
 write_mo_free_results                7  8.9    0.826    0.851   20.981   21.003
 mp_alltoall_z22v                  4876 18.1   12.899   20.041   12.899   20.041
 qs_ot_get_p                       1227 10.3    0.008    0.010   15.991   16.659
 density_rs2pw                      288 11.0    0.018    0.022   14.847   16.474
 xc_rho_set_and_dset_create         143 13.8    0.491    0.780   15.613   16.466
 make_m2s                         37356 13.4    0.494    0.527   15.446   16.316
 xc_pw_divergence                   286 13.8    0.007    0.008   13.441   16.220
 potential_pw2rs                    286 13.8    0.022    0.025   14.588   14.699
 make_images                      37356 14.4    0.967    1.046   12.538   13.295
 yz_to_x                           1783 17.2    0.750    1.051    7.362   12.096
 transfer_rs2pw                    1278 11.8    0.021    0.029    9.859   11.431
 transfer_pw2rs                    1164 14.7    0.016    0.019   11.149   11.213
 hirshfeld_integration               14  9.9    9.998   10.500   10.854   10.860
 mp_waitany                       29644 15.2    8.138   10.467    8.138   10.467
 init_scf_loop                        8  7.9    0.003    0.005   10.403   10.408
 qs_ot_get_derivative_diag          534 12.3    0.010    0.011   10.222   10.315
 qs_ot_p2m_diag                     988 11.1    0.069    0.090   10.014   10.069
 x_to_yz                           1889 17.5    1.248    1.631    7.449    9.336
 multiply_cannon_metrocomm4      280170 15.4    0.693    0.712    3.313    8.984
 build_core_hamiltonian_matrix_       6  6.0    0.000    0.000    7.278    8.784
 apply_preconditioner_dbcsr         779 12.6    0.002    0.003    7.960    8.663
 apply_single                       779 13.6    0.002    0.002    7.958    8.660
 transfer_pw2rs_300                 306 15.5    3.818    4.068    7.821    8.236
 transfer_rs2pw_300                 330 12.7    2.433    3.136    6.544    8.119
 mp_sum_l                         88587 13.5    5.088    8.119    5.088    8.119
 mp_irecv_dv                     592934 16.4    2.617    8.056    2.617    8.056
 cp_dbcsr_syevd                     988 12.1    0.305    0.330    7.066    7.077
 qs_ks_update_qs_env_forces           6  6.0    0.000    0.000    6.845    6.858
 mp_alltoall_d11v                 16444 14.9    5.239    6.741    5.239    6.741
 mp_sum_d                         16386 13.8    4.427    6.608    4.427    6.608
 cp_fm_redistribute_end            1022 14.0    3.406    6.576    3.436    6.601
 cp_fm_diag_elpa                    142 14.0    0.001    0.002    6.422    6.469
 cp_fm_diag_elpa_base               142 15.0    2.944    5.902    2.972    5.966
 pw_to_cube                          42  9.2    2.828    3.374    5.889    5.893
 -------------------------------------------------------------------------------

 The number of warnings for this run is : 2
 
 -------------------------------------------------------------------------------
  **** **** ******  **  PROGRAM ENDED AT                 2025-06-12 10:03:38.843
 ***** ** ***  *** **   PROGRAM RAN ON                                 nid006721
 **    ****   ******    PROGRAM RAN BY                                    cahart
 ***** **    ** ** **   PROGRAM PROCESS ID                                150243
  **** **  *******  **  PROGRAM STOPPED IN /mnt/lustre/a2fs-work2/work/e05/e05/c
                                           ahart/postdoc2/work/group/tio2/anatas
                                           e/cell-441/geo-opt/mp-390/neutral/pbe
                                           -u-o/u-8.0
