     192
 i =        1, E =     -5767.6713967583
Ti         0.0006210973        0.0006252308        0.0000064415
Ti        -0.0011177157       -0.0011206847       -0.0000039048
Ti         0.0006339007       -0.0011337700       -0.0006636004
Ti        -0.0011363106        0.0006241252        0.0006529633
Ti         0.0006334977       -0.0015646501        0.0003448695
Ti        -0.0011433046       -0.0006886181       -0.0006632216
Ti         0.0010908059       -0.0011181721       -0.0000111155
Ti        -0.0004576816        0.0006299750        0.0004615322
Ti        -0.0010776683       -0.0015668065        0.0003277281
Ti         0.0006253591       -0.0006941630        0.0000078547
Ti        -0.0004660425       -0.0010735186        0.0001949561
Ti         0.0011168056        0.0006352009       -0.0006575755
Ti        -0.0015665227        0.0006340628       -0.0003384839
Ti        -0.0006900353       -0.0011388945        0.0006689121
Ti        -0.0006932812        0.0006288620       -0.0000027560
Ti        -0.0015627947       -0.0010782087       -0.0003194344
Ti        -0.0010776871       -0.0004524296       -0.0002092126
Ti         0.0006375517        0.0011104416        0.0006710632
Ti         0.0006428052       -0.0004697488       -0.0004616284
Ti        -0.0011092562        0.0010942241        0.0000069538
Ti         0.0006484158        0.0005240045        0.0004655674
Ti        -0.0010890801        0.0015691374       -0.0003246109
Ti         0.0005265744       -0.0010762205       -0.0001987370
Ti         0.0015888293        0.0006270979        0.0003276050
Ti        -0.0010623677        0.0005354626        0.0001979708
Ti         0.0006366232        0.0015973008       -0.0003293973
Ti         0.0015789529       -0.0011005460        0.0003216866
Ti         0.0005234654        0.0006354621       -0.0004598737
Ti        -0.0015415759       -0.0015434509       -0.0000052181
Ti        -0.0006820615       -0.0006848823       -0.0000050091
Ti         0.0010415542       -0.0004641068        0.0002003389
Ti        -0.0004671028        0.0010424865       -0.0001888733
Ti        -0.0007009087       -0.0015722169       -0.0003392140
Ti        -0.0015664201       -0.0006998664        0.0003448336
Ti        -0.0004643251       -0.0004665047        0.0000007868
Ti         0.0010870087        0.0010840621       -0.0000063681
Ti         0.0011119881       -0.0006868753        0.0006673528
Ti        -0.0004809478       -0.0015326201        0.0001190604
Ti        -0.0015667251        0.0010672946        0.0003097616
Ti        -0.0006937479       -0.0004577602        0.0004653350
Ti        -0.0004638691       -0.0006886144       -0.0004694049
Ti         0.0010732148       -0.0015725001       -0.0003153191
Ti        -0.0007039625        0.0011064014       -0.0006640724
Ti        -0.0015423556       -0.0004607255       -0.0001200411
Ti        -0.0015388514        0.0005227691        0.0001111369
Ti        -0.0007008839        0.0015816564        0.0003343693
Ti         0.0005347913       -0.0004663429       -0.0000017809
Ti         0.0015871405        0.0010592631       -0.0003086781
Ti        -0.0007036215        0.0005309869       -0.0004772524
Ti        -0.0015620506        0.0015531520        0.0000064592
Ti         0.0015524222       -0.0004458323        0.0001010477
Ti         0.0005295435        0.0010399668        0.0001868035
Ti         0.0010576459        0.0015757730        0.0003271085
Ti        -0.0004756219        0.0005369321        0.0000019394
Ti        -0.0004892482        0.0015422505       -0.0000982273
Ti         0.0010362057        0.0005416014       -0.0001953844
Ti         0.0015724022       -0.0015566719       -0.0000028282
Ti         0.0005233892       -0.0006800576        0.0004692535
Ti         0.0005129938       -0.0015308426       -0.0001027126
Ti         0.0015913856       -0.0006764369       -0.0003374225
Ti         0.0005318775        0.0005345108        0.0000037977
Ti         0.0015906844        0.0015387138        0.0000009056
Ti         0.0005481672        0.0015371180        0.0000975174
Ti         0.0015574395        0.0005499607       -0.0001213664
O        -0.0001701752        0.0001472890       -0.0018797799
O         0.0009213625        0.0003907348       -0.0018821867
O         0.0001658515        0.0009868372       -0.0016041869
O         0.0004218063       -0.0001601484       -0.0021341787
O         0.0009907242        0.0001689435        0.0016091793
O        -0.0001582827        0.0004303197        0.0021281413
O         0.0004078154        0.0009169007        0.0018862723
O         0.0001473069       -0.0001638374        0.0018845020
O        -0.0001778989       -0.0005336041       -0.0018776405
O         0.0009839155       -0.0001767021       -0.0016063617
O        -0.0004222653        0.0009391673       -0.0018850824
O        -0.0000929120       -0.0001728517       -0.0019979518
O         0.0008449010       -0.0005254653        0.0016263314
O        -0.0001712243       -0.0001601988        0.0018827856
O        -0.0000941518        0.0008120188        0.0017551645
O        -0.0004486926       -0.0001610125        0.0021359293
O        -0.0005256186       -0.0001601796        0.0018744114
O        -0.0001701722        0.0009813083        0.0016098376
O        -0.0001523636       -0.0001674195       -0.0018873647
O        -0.0005317175        0.0008399752       -0.0016287641
O         0.0007990792       -0.0000929964       -0.0017510033
O        -0.0001632859       -0.0004426928       -0.0021374839
O        -0.0001737861       -0.0000917479        0.0019910200
O         0.0009338620       -0.0004250039        0.0018873340
O        -0.0001743871        0.0001068510       -0.0019912606
O         0.0008350342        0.0005259677       -0.0016297887
O         0.0001065803        0.0008186680       -0.0017500085
O         0.0005192197       -0.0001733972       -0.0018782530
O         0.0008201384        0.0001037306        0.0017597058
O        -0.0001825787        0.0005176675        0.0018734557
O         0.0005192526        0.0008444460        0.0016302979
O         0.0001069103       -0.0001543032        0.0019983366
O        -0.0003697420        0.0001784543       -0.0015220771
O         0.0002226343        0.0004301879       -0.0021395045
O         0.0001891665       -0.0007522389       -0.0015316876
O         0.0004089325       -0.0009491160       -0.0018910945
O         0.0002147673        0.0001607291        0.0018868119
O        -0.0003723301        0.0003648332        0.0018060604
O         0.0003474914       -0.0007628198        0.0018016531
O         0.0001614230       -0.0009935783        0.0016035953
O        -0.0009544967        0.0004058965        0.0018886519
O        -0.0007566827        0.0001934956        0.0015371011
O        -0.0007579563        0.0003472816       -0.0018029501
O        -0.0009925413        0.0001660578       -0.0016106118
O         0.0003678426       -0.0003767276       -0.0018083447
O         0.0001527455        0.0002175092       -0.0018868559
O         0.0001841384       -0.0003575172        0.0015186628
O         0.0004349793        0.0002273160        0.0021349960
O        -0.0004080760       -0.0005282926       -0.0015455229
O         0.0002326290       -0.0001619183       -0.0018776815
O        -0.0003656751       -0.0007599293       -0.0017944876
O        -0.0000995288       -0.0008273718       -0.0017459310
O         0.0002046315       -0.0005336655        0.0018810075
O        -0.0003592956       -0.0001806548        0.0015276618
O        -0.0001108524       -0.0007891319        0.0015642631
O        -0.0004240513       -0.0009414154        0.0018891186
O        -0.0010003891       -0.0001753446        0.0016106492
O        -0.0007755923       -0.0005586257        0.0014905047
O        -0.0005327410       -0.0008508233        0.0016318315
O        -0.0001955434       -0.0007571382        0.0015286240
O        -0.0007547958       -0.0002003778       -0.0015366091
O        -0.0008460298       -0.0005330782       -0.0016297084
O        -0.0001686309       -0.0009903240       -0.0016088142
O        -0.0005580184       -0.0007814600       -0.0014807990
O        -0.0007908000       -0.0001137307       -0.0015644615
O        -0.0009391470       -0.0004231903       -0.0018903939
O        -0.0001882943       -0.0003584087       -0.0015267350
O        -0.0005320135        0.0002047245       -0.0018780381
O        -0.0008245061       -0.0000892528        0.0017450028
O        -0.0007561984       -0.0003714731        0.0017928462
O        -0.0005355312       -0.0004057151        0.0015462294
O        -0.0001608845        0.0002249399        0.0018806905
O         0.0002106903       -0.0004505196        0.0021377293
O        -0.0004210707       -0.0000991552        0.0016664500
O        -0.0000910348        0.0002043991        0.0019981058
O        -0.0003863475       -0.0003593184        0.0018082491
O        -0.0003609528       -0.0003953309       -0.0018058043
O         0.0002175315       -0.0000946392       -0.0019904331
O        -0.0004457383        0.0002019352       -0.0021336629
O        -0.0000963351       -0.0004250992       -0.0016674003
O        -0.0004110063        0.0001125526       -0.0016649724
O         0.0002269648        0.0005241683       -0.0018765095
O         0.0001226209       -0.0007876341       -0.0015594521
O         0.0005203606       -0.0008438575       -0.0016322561
O         0.0002127794        0.0001033816        0.0019976626
O        -0.0004089833        0.0005272640        0.0015498111
O         0.0005458635       -0.0007847999        0.0014875066
O         0.0001110044       -0.0008186297        0.0017411335
O        -0.0008499180        0.0005170420        0.0016446557
O        -0.0007922504        0.0001210928        0.0015584243
O        -0.0007709301        0.0005534144       -0.0014879473
O        -0.0008139504        0.0001100485       -0.0017596522
O         0.0005262587       -0.0004134934       -0.0015387637
O         0.0001057503        0.0001928063       -0.0019974474
O         0.0001104000       -0.0004176104        0.0016535204
O         0.0005126763        0.0002006893        0.0018767670
O         0.0008089305        0.0001880855       -0.0015389469
O         0.0002928141        0.0003582878       -0.0018080949
O         0.0001832866        0.0002980584       -0.0015241479
O         0.0003500212        0.0008077058       -0.0018044949
O         0.0002879450        0.0001835333        0.0015343212
O         0.0008124170        0.0003524327        0.0017970338
O         0.0003705412        0.0002967032        0.0018176685
O         0.0001908035        0.0008079615        0.0015285409
O         0.0008367875       -0.0005603591       -0.0014848369
O         0.0002829600       -0.0001924468       -0.0015286586
O        -0.0003843351        0.0003107068       -0.0018243616
O        -0.0001120279        0.0008444362       -0.0015622297
O         0.0003462876       -0.0005312556        0.0015423803
O         0.0008088651       -0.0001887030        0.0015320759
O        -0.0000962537        0.0003648323        0.0016585112
O        -0.0003712311        0.0008064805        0.0018031598
O        -0.0005602621        0.0008371740        0.0014894642
O        -0.0001999997        0.0002846327        0.0015239094
O        -0.0001926592        0.0008054276       -0.0015276175
O        -0.0005411624        0.0003500618       -0.0015577366
O         0.0003500224       -0.0000955720       -0.0016597335
O         0.0008085138       -0.0003651596       -0.0017835617
O         0.0008464872       -0.0001121671        0.0015584938
O         0.0002846445       -0.0003972243        0.0018054439
O         0.0008484455        0.0001254050       -0.0015621688
O         0.0003351149        0.0005266590       -0.0015627856
O         0.0001108498        0.0003781710       -0.0016508598
O         0.0005496533        0.0008246031       -0.0014953227
O         0.0003331028        0.0001125561        0.0016815019
O         0.0008250827        0.0005438104        0.0014863750
O         0.0005323068        0.0003449485        0.0015586188
O         0.0001284397        0.0008445025        0.0015598113
     192
 i =        2, E =     -5767.6740690860
Ti         0.0000704745        0.0000749661       -0.0000042130
Ti         0.0003662655        0.0003539000       -0.0000038401
Ti         0.0000614842        0.0004150591        0.0006892520
Ti         0.0004085934        0.0000641454       -0.0007038901
Ti         0.0000515481       -0.0005864366        0.0002686893
Ti         0.0004151158       -0.0000157621        0.0006782182
Ti        -0.0004043957        0.0003727276       -0.0000294345
Ti        -0.0010456356        0.0000493892       -0.0002254645
Ti         0.0003278129       -0.0006119575       -0.0009280755
Ti         0.0000719289       -0.0000372125        0.0000080527
Ti        -0.0010457918        0.0002885462       -0.0004554475
Ti        -0.0004462222        0.0000635671        0.0007143433
Ti        -0.0005854397        0.0000571568       -0.0002602089
Ti        -0.0000180693        0.0004129187       -0.0006800854
Ti        -0.0000271494        0.0000822823       -0.0000022725
Ti        -0.0006176776        0.0003214550        0.0009434373
Ti         0.0002816443       -0.0010391360        0.0004668663
Ti         0.0000581358       -0.0004423576       -0.0006994085
Ti         0.0000422609       -0.0010520558        0.0002264368
Ti         0.0003748282       -0.0004016834        0.0000144232
Ti         0.0000452058        0.0011012879       -0.0002167894
Ti         0.0003307810        0.0005471067        0.0009315943
Ti         0.0011101975        0.0002923515        0.0004723695
Ti         0.0005171398        0.0000571721        0.0002588990
Ti         0.0002918502        0.0011010645       -0.0004718853
Ti         0.0000531439        0.0005273133       -0.0002572659
Ti         0.0005441277        0.0003210725       -0.0009377518
Ti         0.0011054550        0.0000499792        0.0002176428
Ti        -0.0006330283       -0.0006292534       -0.0000047030
Ti        -0.0000283116       -0.0000401783       -0.0000105720
Ti        -0.0003207757       -0.0010454993       -0.0004877834
Ti        -0.0010406513       -0.0003287984        0.0004717429
Ti        -0.0000228072       -0.0005858101       -0.0002656112
Ti        -0.0005872826       -0.0000197666        0.0002794855
Ti        -0.0010447549       -0.0010567138        0.0000108068
Ti        -0.0004012827       -0.0003952452        0.0000137946
Ti        -0.0004405599       -0.0000286011       -0.0007068806
Ti        -0.0010496471       -0.0006639695       -0.0004229919
Ti        -0.0006087910       -0.0003588385       -0.0009624602
Ti        -0.0000081592       -0.0010445677       -0.0002205532
Ti        -0.0010419201       -0.0000259295        0.0002203971
Ti        -0.0003542095       -0.0006137954        0.0009594708
Ti        -0.0000188279       -0.0004465976        0.0006997598
Ti        -0.0006662129       -0.0010453684        0.0004132379
Ti        -0.0006590287        0.0011005967       -0.0004283943
Ti        -0.0000236846        0.0005237383        0.0002577811
Ti         0.0011197983       -0.0010563393        0.0000116455
Ti         0.0005321039       -0.0003592620        0.0009503722
Ti        -0.0000067085        0.0010980171        0.0002068815
Ti        -0.0006358889        0.0005748726        0.0000067278
Ti         0.0005926365       -0.0010377357       -0.0004257157
Ti         0.0011026653       -0.0003245818       -0.0004925379
Ti        -0.0003539926        0.0005487647       -0.0009438614
Ti        -0.0010522772        0.0011174402       -0.0000001467
Ti        -0.0010462400        0.0006179028        0.0004413145
Ti        -0.0003228517        0.0010991900        0.0004989277
Ti         0.0005733643       -0.0006318753        0.0000033186
Ti         0.0011022898       -0.0000177670       -0.0001996646
Ti         0.0011022310       -0.0006640413        0.0004287591
Ti         0.0005080964       -0.0000233549       -0.0002689228
Ti         0.0011119359        0.0011162339       -0.0000032081
Ti         0.0005666504        0.0005701986        0.0000064125
Ti         0.0011041315        0.0006075753       -0.0004171044
Ti         0.0005894116        0.0011034371        0.0004118482
O         0.0002403952        0.0006414050       -0.0002955031
O        -0.0008670581       -0.0004463165       -0.0000878748
O         0.0006123848       -0.0009273519       -0.0000115769
O        -0.0004556288        0.0002337167       -0.0003551402
O        -0.0009315418        0.0006001734        0.0000227468
O         0.0002400291       -0.0004541063        0.0003583867
O        -0.0004441003       -0.0008577975        0.0000864189
O         0.0006344409        0.0002371153        0.0002961360
O         0.0002566692        0.0004530557       -0.0010467832
O        -0.0009341379       -0.0005766897        0.0000020776
O         0.0004540696       -0.0008767030       -0.0000440954
O         0.0000181049        0.0002319097       -0.0006244135
O        -0.0007719314        0.0004297779        0.0007401629
O         0.0002464097       -0.0006188539        0.0002825288
O         0.0000121229       -0.0007666364        0.0003186389
O         0.0004729116        0.0002395720        0.0003144134
O         0.0004579295        0.0002450763        0.0010443977
O        -0.0005816244       -0.0009332100        0.0000002536
O        -0.0006154214        0.0002432782       -0.0002810890
O         0.0004313884       -0.0007698386       -0.0007454732
O        -0.0007616424        0.0000226204       -0.0003168285
O         0.0002478416        0.0004642575       -0.0003149382
O         0.0002419928        0.0000173403        0.0006222327
O        -0.0008727239        0.0004601625        0.0000497600
O         0.0002427958       -0.0000228643       -0.0006371849
O        -0.0007751951       -0.0004428417       -0.0007393041
O        -0.0000204539       -0.0007717814       -0.0003402039
O        -0.0004691493        0.0002457505       -0.0010421535
O        -0.0007660950       -0.0000223050        0.0003464947
O         0.0002578287       -0.0004638184        0.0010364106
O        -0.0004489198       -0.0007824436        0.0007426629
O        -0.0000255215        0.0002241124        0.0006465104
O         0.0006894235        0.0005700985       -0.0000012449
O        -0.0002986889       -0.0004497183       -0.0003635309
O         0.0005616196       -0.0005065047        0.0002375201
O        -0.0004418307        0.0009009773       -0.0000951353
O        -0.0003014194        0.0006429979        0.0003012718
O         0.0006907586       -0.0004237034        0.0000889688
O        -0.0004119177       -0.0005014506       -0.0001267265
O         0.0006127289        0.0009586738        0.0000189930
O         0.0009043689       -0.0004445626        0.0000996753
O        -0.0005000659        0.0005561261       -0.0002390642
O        -0.0005039615       -0.0004039702        0.0001198970
O         0.0009590268        0.0006084893       -0.0000234868
O        -0.0004202299        0.0006861049       -0.0000883993
O         0.0006359511       -0.0003010214       -0.0003010903
O         0.0005730134        0.0006863663       -0.0000036882
O        -0.0004534951       -0.0003045846        0.0003619751
O         0.0007294658        0.0004277168       -0.0007403718
O        -0.0003014801       -0.0006162261       -0.0002788074
O         0.0004142302       -0.0005074026        0.0001737106
O         0.0000130817        0.0007978171       -0.0003224640
O        -0.0002942255        0.0004535299        0.0010521892
O         0.0006824966       -0.0005476744       -0.0000129118
O         0.0000243513       -0.0005624721        0.0001323126
O         0.0004573955        0.0008944893        0.0000522961
O         0.0009633872       -0.0005789226        0.0000081406
O        -0.0005210147        0.0004164011        0.0005326685
O         0.0004309186        0.0008051596        0.0007574875
O        -0.0005357063       -0.0004995127       -0.0002551181
O        -0.0005037307       -0.0005310219        0.0002518764
O         0.0008087108        0.0004301916       -0.0007565618
O        -0.0005913689        0.0009582000       -0.0000075730
O         0.0004099176       -0.0005187175       -0.0005274756
O        -0.0005510534        0.0000183374       -0.0001355898
O         0.0009024797        0.0004588593       -0.0000599734
O        -0.0005503161        0.0006744717        0.0000098058
O         0.0004573683       -0.0002968277       -0.0010510453
O         0.0007912000        0.0000220250        0.0003229232
O        -0.0005005748        0.0004092587       -0.0001694265
O         0.0004177104        0.0007348392        0.0007412771
O        -0.0006147694       -0.0002975255        0.0002862895
O        -0.0002970994        0.0004649905        0.0003193074
O         0.0007195051        0.0000281617        0.0003485588
O         0.0000195893       -0.0002643287        0.0006287173
O         0.0004304376        0.0006812255        0.0000475873
O         0.0006720799        0.0004402283       -0.0000482789
O        -0.0002774459        0.0000206218       -0.0006225747
O         0.0004616638       -0.0002884745       -0.0003129407
O         0.0000235488        0.0007220952       -0.0003497664
O         0.0007218089       -0.0000355084       -0.0003625576
O        -0.0003075547       -0.0004660288       -0.0010374572
O        -0.0000239301       -0.0005587300       -0.0001543119
O        -0.0004488126        0.0007953240       -0.0007485072
O        -0.0002861309       -0.0000238833        0.0006466884
O         0.0007234712       -0.0004439826        0.0007378161
O        -0.0004259772       -0.0005091972        0.0005231185
O        -0.0000178800        0.0007905864        0.0003455927
O         0.0007980852       -0.0004497102        0.0007532836
O        -0.0005492796       -0.0000186221        0.0001435555
O        -0.0005199780       -0.0004264704       -0.0005233473
O         0.0007860848       -0.0000250419       -0.0003530782
O        -0.0004336557        0.0007283566       -0.0007293222
O        -0.0000247849       -0.0002575881       -0.0006502148
O        -0.0000322553        0.0007262405        0.0003536723
O        -0.0004684142       -0.0002818267        0.0010440267
O         0.0004154050        0.0005580082        0.0002321521
O        -0.0006227370       -0.0004180084       -0.0001004477
O         0.0005699403       -0.0006189456       -0.0000140136
O        -0.0004095963        0.0004211209        0.0001192911
O        -0.0006211755        0.0005618564        0.0000167138
O         0.0004186697       -0.0004049330       -0.0001229386
O        -0.0004235842       -0.0006377251        0.0001032090
O         0.0005631433        0.0004096437       -0.0002364803
O         0.0004150474        0.0004204785       -0.0005338833
O        -0.0006195732       -0.0005358617       -0.0000033573
O         0.0004317935       -0.0006296690       -0.0000702056
O         0.0000178725        0.0004599317       -0.0001416772
O        -0.0006716840        0.0004186378        0.0007459653
O         0.0004101746       -0.0005289052       -0.0002523865
O         0.0000242468       -0.0006789960        0.0003450513
O         0.0004188402        0.0004130982       -0.0001635286
O         0.0004153710        0.0004141187        0.0005374014
O        -0.0005453833       -0.0006246062        0.0000026049
O        -0.0005353193        0.0004098668        0.0002502094
O         0.0004134246       -0.0006770791       -0.0007582662
O        -0.0006630697        0.0000325828       -0.0003470624
O         0.0004135019        0.0004074524        0.0001702700
O         0.0004618995        0.0000152850        0.0001343221
O        -0.0006112302        0.0004334695        0.0000564053
O         0.0004472658       -0.0000186454       -0.0001529532
O        -0.0006573652       -0.0004422630       -0.0007511734
O        -0.0000300022       -0.0006756558       -0.0003637074
O        -0.0004296817        0.0004219084       -0.0005337342
O        -0.0006595232       -0.0000220753        0.0003790373
O         0.0004266454       -0.0004358804        0.0005205593
O        -0.0004227267       -0.0006899431        0.0007517784
O        -0.0000277506        0.0004435746        0.0001608126
     192
 i =        3, E =     -5767.6745341625
Ti         0.0001800677        0.0001787650       -0.0000046920
Ti        -0.0000015886        0.0000043606        0.0000007001
Ti         0.0001754116       -0.0000094300        0.0001015629
Ti        -0.0000130243        0.0001780362       -0.0001014887
Ti         0.0001775055        0.0003058080        0.0003122602
Ti        -0.0000102801       -0.0001724291        0.0000923662
Ti         0.0000223237       -0.0000017897       -0.0000110863
Ti        -0.0002556587        0.0001770302        0.0005178926
Ti         0.0000038248        0.0003224783       -0.0004163190
Ti         0.0001795664       -0.0001726225        0.0000071418
Ti        -0.0002593025        0.0000180022       -0.0006023612
Ti         0.0000309902        0.0001740666        0.0001163039
Ti         0.0003087117        0.0001731328       -0.0003106838
Ti        -0.0001733534       -0.0000105113       -0.0000930357
Ti        -0.0001716803        0.0001780888       -0.0000081618
Ti         0.0003194162        0.0000078995        0.0004149030
Ti         0.0000179399       -0.0002657390        0.0006095318
Ti         0.0001759199        0.0000352069       -0.0001195242
Ti         0.0001775845       -0.0002524643       -0.0005146508
Ti        -0.0000074590        0.0000223693        0.0000119295
Ti         0.0001734102        0.0002093198        0.0005009996
Ti         0.0000063620       -0.0003113618        0.0003922278
Ti         0.0002168318        0.0000182031        0.0005947024
Ti        -0.0003018158        0.0001748621        0.0002923845
Ti         0.0000094296        0.0002086745       -0.0005913486
Ti         0.0001786826       -0.0003061837       -0.0002919288
Ti        -0.0003109669        0.0000115953       -0.0003937320
Ti         0.0002099580        0.0001733635       -0.0005030334
Ti         0.0003128316        0.0003163210        0.0000040239
Ti        -0.0001766076       -0.0001761868        0.0000021710
Ti         0.0000067793       -0.0002588858       -0.0006216466
Ti        -0.0002573987        0.0000066294        0.0006173587
Ti        -0.0001682849        0.0003096216       -0.0003236709
Ti         0.0003059485       -0.0001658347        0.0003188600
Ti        -0.0003070843       -0.0003127752        0.0000000965
Ti         0.0000274654        0.0000295595        0.0000038468
Ti         0.0000362465       -0.0001696815       -0.0001081438
Ti        -0.0002808807        0.0003200655        0.0001847436
Ti         0.0003167291        0.0000151117       -0.0004244404
Ti        -0.0001703105       -0.0002566522        0.0005278892
Ti        -0.0002514368       -0.0001677744       -0.0005243467
Ti         0.0000092071        0.0003207178        0.0004255106
Ti        -0.0001660158        0.0000365441        0.0001059504
Ti         0.0003212025       -0.0002903568       -0.0001877247
Ti         0.0003218070        0.0002428702        0.0001755640
Ti        -0.0001689191       -0.0002978563        0.0003027376
Ti         0.0002552928       -0.0003125679       -0.0000101901
Ti        -0.0003128651        0.0000166559        0.0004027981
Ti        -0.0001656680        0.0002045656       -0.0005081899
Ti         0.0003186329       -0.0003107494        0.0000171955
Ti        -0.0003137159       -0.0002962187        0.0002152017
Ti         0.0002131744        0.0000075419       -0.0006038197
Ti         0.0000169073       -0.0003135892       -0.0004056071
Ti        -0.0003019701        0.0002546260        0.0000188864
Ti        -0.0002759145       -0.0003095294       -0.0002140522
Ti         0.0000074230        0.0002062989        0.0006059163
Ti        -0.0003118352        0.0003206247       -0.0000196310
Ti         0.0002081160       -0.0001649836        0.0005136962
Ti         0.0002458849        0.0003200534       -0.0001741427
Ti        -0.0003018905       -0.0001677428       -0.0002994088
Ti         0.0002577080        0.0002587774       -0.0000041675
Ti        -0.0003172654       -0.0003039839        0.0000030676
Ti         0.0002266718       -0.0003111712        0.0002025544
Ti        -0.0003148501        0.0002289796       -0.0001912403
O        -0.0001095385       -0.0004445649        0.0000104155
O         0.0001233594        0.0001610277        0.0001773378
O        -0.0004419954        0.0001308467        0.0000033125
O         0.0001694836       -0.0001152646        0.0001710097
O         0.0001325131       -0.0004435891       -0.0000015070
O        -0.0001198719        0.0001618574       -0.0001665364
O         0.0001597199        0.0001199183       -0.0001782674
O        -0.0004490452       -0.0001113171       -0.0000076331
O        -0.0001233154        0.0000579257       -0.0003955042
O         0.0001389531        0.0004488557       -0.0000007229
O        -0.0001550256        0.0001173777        0.0001905366
O         0.0001543840       -0.0001087215       -0.0001234576
O         0.0001029634        0.0000569274        0.0004195696
O        -0.0001140022        0.0004485683        0.0000009067
O         0.0001522408        0.0001221302        0.0001827315
O        -0.0001566520       -0.0001162877       -0.0001811278
O         0.0000545646       -0.0001257239        0.0003951088
O         0.0004499766        0.0001396947        0.0000020000
O         0.0004507544       -0.0001126440        0.0000053448
O         0.0000568188        0.0001025954       -0.0004205599
O         0.0001290381        0.0001551176       -0.0001839207
O        -0.0001210019       -0.0001635160        0.0001851388