     192
 i =        1, E =     -5767.6713967583
Ti        -0.0006630436       -0.0006687993       -0.0000040156
Ti         1.8924460326        1.8924390889        4.8075100365
Ti        -0.0006713647        1.8924448568        2.4026855235
Ti         1.8924396981       -0.0006331688        7.2123802619
Ti        -0.0006244753        3.7810781504        0.0015982267
Ti         1.8924518513       13.2394502771        4.8064245557
Ti        11.3464011596        1.8924341420        2.4037520754
Ti         5.6738147849       -0.0006029032        7.2132194824
Ti         1.8924026421        3.7811340444        7.2107655088
Ti        -0.0006769403       13.2394825733        2.4037688300
Ti         5.6738343524        1.8924030251        4.8066388745
Ti        11.3463816863       -0.0006604811       -0.0010805389
Ti         3.7810951282       -0.0006339415       -0.0016030614
Ti        13.2394482505        1.8924381279        4.8086081068
Ti        13.2394773717       -0.0006878861        7.2112574549
Ti         3.7811215538        1.8923904264        2.4042332673
Ti         1.8924171815        5.6737972275        4.8083711694
Ti        -0.0006784632       11.3463985215        0.0010755945
Ti        -0.0006291741        5.6738474128        2.4018115366
Ti         1.8924214131       11.3463886143        7.2113048333
Ti        -0.0006414941        7.5651197462        0.0019321026
Ti         1.8924344474        9.4578061080        4.8079715748
Ti         7.5651213875        1.8924098828        2.4046087565
Ti         9.4578094154       -0.0005906397        7.2128286879
Ti         1.8923933806        7.5651024731        7.2104030804
Ti        -0.0006151947        9.4577832437        2.4021825471
Ti         9.4577869429        1.8924310422        4.8070386049
Ti         7.5651186014       -0.0006307078       -0.0019354575
Ti         3.7811417925        3.7811333335        0.0000031965
Ti        13.2394498836       13.2394690655        4.8075183382
Ti        11.3464374886        5.6738232343        2.4028777177
Ti         5.6738177295       11.3464448884        7.2121536964
Ti        13.2394309972        3.7810914377        7.2096695399
Ti         3.7810764503       13.2394457675        2.4053232100
Ti         5.6738067941        5.6738392827        4.8074985892
Ti        11.3464042028       11.3464099746       -0.0000112744
Ti        11.3463955265       13.2394537032        2.4048170898
Ti         5.6738545644        3.7811200102        7.2116203263
Ti         3.7811291798       11.3463978250       -0.0004994798
Ti        13.2394097193        5.6738338586        4.8094676460
Ti         5.6738246541       13.2394176856        4.8055606831
Ti        11.3463961850        3.7811274068        0.0005099678
Ti        13.2394778413       11.3464014184        7.2101892127
Ti         3.7811326492        5.6738010201        2.4033909021
Ti         3.7811268249        7.5651388826        0.0003717702
Ti        13.2394304305        9.4578233469        4.8090960265
Ti         7.5651205870        5.6738345168        2.4037483905
Ti         9.4577770904       11.3464220486        7.2117654393
Ti        13.2394206370        7.5651190158        7.2093270082
Ti         3.7811735007        9.4577888312        2.4037945874
Ti         9.4577863251        5.6737774191        4.8078987563
Ti         7.5651217775       11.3464381142       -0.0008734054
Ti        11.3464188414        9.4577956977        2.4032489140
Ti         5.6738318926        7.5651183137        7.2112746865
Ti         5.6738785356        9.4577911722        4.8071095870
Ti        11.3464415380        7.5650959695        0.0008762794
Ti         9.4577496479        3.7811591521        7.2112322787
Ti         7.5651308931       13.2393833423        2.4056923506
Ti         7.5651549805        3.7811150453       -0.0003587039
Ti         9.4578159854       13.2394062606        4.8059552490
Ti         7.5651283601        7.5651201029        0.0000037713
Ti         9.4577155545        9.4578059508        4.8075069202
Ti         7.5650863978        9.4577954750        2.4041220512
Ti         9.4577823488        7.5650831837        7.2108753263
O         0.0012254282        0.0023651983        1.9855017137
O         1.8830486490        1.8897613654        6.7910214955
O         0.0023321115        1.8828117709        4.3883522029
O         1.8896786433        0.0011969930        9.1956403610
O         1.8827996012        0.0023401459        5.2266648462
O         0.0011745184        1.8896592151        0.4194274907
O         1.8897184549        1.8830527358        2.8239896337
O         0.0023686920        0.0012004497        7.6295172986
O         0.0012313993        3.7815687790        1.9854085533
O         1.8828363232       13.2364267063        6.7921190265
O        11.3491037939        1.8829806442        4.3872673506
O         5.6727579988        0.0012221093        9.1969559624
O         1.8832162184        3.7815635922        5.2266719300
O         0.0012211204       13.2364138128        0.4182674658
O         5.6727859147        1.8833371122        2.8225396437
O        11.3491593583        0.0011871207        7.6306560712
O         3.7815378353        0.0011610332        7.6296439126
O        13.2364053403        1.8828470516        2.8229216048
O        13.2363922643        0.0012055284        9.1967714801
O         3.7815913929        1.8832420800        4.3883411484
O         1.8833938988        5.6727659205        6.7924425139
O         0.0011818439       11.3491506620        1.9843719681
O         0.0012036168        5.6727500185        0.4180853573
O         1.8829947374       11.3491056711        5.2277801008
O         0.0012105015        7.5662202805        1.9856461305
O         1.8832679362        9.4572934221        6.7920890154
O         7.5662086560        1.8833137999        4.3886962297
O         9.4573360391        0.0012316744        9.1966348078
O         1.8833023629        7.5662071099        5.2262705453
O         0.0012515011        9.4573428694        0.4184047533
O         9.4573296116        1.8832423909        2.8229337176
O         7.5662243654        0.0011492678        7.6293305028
O         3.7733372111        0.0023166147        1.9841753333
O        13.2371618449        1.8896560389        6.7918863635
O         0.0023007883        5.6698481406        4.3877155971
O         1.8897090025       11.3556689438        9.1948477937
O        13.2372078877        0.0023393618        5.2257584633
O         3.7733692011        1.8897977585        0.4205330716
O         1.8898032376        5.6698015241        2.8245296366
O         0.0023467873       11.3558126481        7.6304450882
O        11.3556917688        1.8897260520        0.4202053181
O         5.6698124712        0.0022900628        5.2273038465
O         5.6697997945        1.8898027330        6.7904936028
O        11.3558057308        0.0023361242        1.9846153792
O         1.8897942974        3.7734101278        9.1944622006
O         0.0023566988       13.2371959568        4.3892820578
O         0.0023026341        3.7732719598        7.6308438226
O         1.8896511785       13.2371466221        2.8231551174
O         3.7734647142        3.7815635332        1.9844043567
O        13.2371220894       13.2364064645        6.7929726298
O        11.3490277720        5.6698756195        4.3866711012
O         5.6727842189       11.3553332332        9.1962076328
O        13.2372584788        3.7815591854        5.2258790209
O         3.7732871266       13.2364266975        0.4195123064
O         5.6727737944        5.6698500696        2.8227924037
O        11.3491126824       11.3556467126        7.6314864046
O        11.3558381033       13.2364257267        0.4191316190
O         5.6698415587        3.7816006415        5.2269868510
O         3.7815704501       11.3553904180        7.6304154420
O        13.2364598876        5.6697815861        2.8235918478
O         5.6698251939       13.2364802200        6.7914866671
O        11.3553630631        3.7815762739        1.9846227280
O        13.2364129611       11.3557998391        9.1958658183
O         3.7816032728        5.6698294128        4.3879673441
O         5.6697826109        5.6727706902        6.7922218682
O        11.3556245686       11.3490985295        1.9835274447
O        13.2364349049        3.7733051420        9.1954994914
O         3.7815599174       13.2372662270        4.3891182908
O        11.3553295068        5.6727571374        0.4188346696
O         5.6697522131       11.3490461470        5.2283637590
O         3.7816171841        3.7734309457        7.6306108929
O        13.2364039256       13.2371539582        2.8220428308
O        13.2372238839       11.3491665254        5.2269278052
O         3.7734974540        5.6727971858        0.4189201658
O         5.6727457077       13.2372258483        2.8218213842
O        11.3490301182        3.7733200670        7.6318307328
O         3.7733508388       11.3490542713        1.9831801299
O        13.2371855771        5.6727541046        6.7931654271
O        11.3491495662       13.2372441489        4.3880792548
O         5.6728076938        3.7735140927        9.1961221826
O         3.7734350040        7.5662030720        1.9848348655
O        13.2371712785        9.4573416857        6.7928640787
O         7.5661913098        5.6698538449        4.3884346302
O         9.4573338361       11.3553742586        9.1958627606
O        13.2372265883        7.5662427010        5.2256042299
O         3.7734873034        9.4572996346        0.4193843893
O         9.4573072846        5.6697931195        2.8233092919
O         7.5661948981       11.3553022171        7.6301178582
O        11.3554058081        9.4573238691        0.4190940540
O         5.6697769315        7.5662095770        5.2266210449
O         5.6698469621        9.4572956533        6.7917179261
O        11.3552810283        7.5662206903        1.9849773706
O         9.4572976003        3.7735042493        9.1955922597
O         7.5662299692       13.2372667146        4.3894270846
O         7.5661934895        3.7734633998        7.6302588182
O         9.4573636667       13.2372473799        2.8221658915
O         7.5694730674        0.0022846321        1.9840115321
O         9.4656215171        1.8898283534        6.7907052365
O         0.0023226392        9.4656094970        4.3879713217
O         1.8897934858        7.5694450297        9.1942735574
O         9.4656744158        0.0023162040        5.2270120002
O         7.5694414687        1.8897862752        0.4207876143
O         1.8898165028        9.4656404416        2.8242763056
O         0.0022938614        7.5695050593        7.6310640921
O         7.5694915365        3.7816091167        1.9842575898
O         9.4657003305       13.2364618742        6.7917656809
O        11.3489999315        9.4655464393        4.3870081307
O         5.6727899950        7.5694453118        9.1959833563
O         9.4654588083        3.7815857668        5.2268888918
O         7.5694861160       13.2364543907        0.4197958839
O         5.6727854883        9.4654268142        2.8227336844
O        11.3490250167        7.5695178343        7.6320466132
O         3.7816016264        7.5695178152        7.6307565451
O        13.2364573842        9.4657014234        2.8233058357
O        13.2364462647        7.5695062037        9.1952035245
O         3.7816486341        9.4654473805        4.3882090723
O         9.4654695096        5.6727686965        6.7922854534
O         7.5694992060       11.3490283464        1.9828844834
O         7.5694319159        5.6727849794        0.4190718320
O         9.4656383552       11.3490537274        5.2281265795
O         7.5695359656        7.5662057092        1.9846753784
O         9.4654833317        9.4572810550        6.7919308484
O         7.5661877896        9.4653445957        4.3884739176
O         9.4573100610        7.5694841939        9.1955149949
O         9.4655541711        7.5661818820        5.2263906376
O         7.5694543253        9.4573088304        0.4195523788
O         9.4572668811        9.4655171923        2.8230835715
O         7.5662103062        7.5695387735        7.6303454569
     192
 i =        2, E =     -5767.6740690860
Ti         0.0011236683        0.0011228873        0.0000273089
Ti         1.8879371649        1.8879439893        4.8075122205
Ti         0.0010932695        1.8878446774        2.4016773522
Ti         1.8878435397        0.0010829731        7.2133824382
Ti         0.0010723953        3.7769375187        0.0032089465
Ti         1.8878461898       13.2374202861        4.8054027265
Ti        11.3507835887        1.8879188712        2.4036792379
Ti         5.6718451806        0.0010026244        7.2161641963
Ti         1.8880135349        3.7769488797        7.2101367803
Ti         0.0011252699       13.2374025246        2.4038147120
Ti         5.6718558878        1.8879657841        4.8046906009
Ti        11.3508568061        0.0010847181       -0.0020213730
Ti         3.7769346501        0.0010602434       -0.0032188532
Ti        13.2374218530        1.8878512408        4.8096458644
Ti        13.2373894088        0.0011053319        7.2112241715
Ti         3.7769639844        1.8880115063        2.4048465107
Ti         1.8879646524        5.6718469602        4.8102867979
Ti         0.0010947367       11.3508482853        0.0020308275
Ti         0.0010050565        5.6718471424        2.3988595481
Ti         1.8879064481       11.3507676660        7.2113851097
Ti         0.0010129975        7.5673333971        0.0048480124
Ti         1.8880141704        9.4619930613        4.8085387825
Ti         7.5673130368        1.8879586721        2.4065157804
Ti         9.4620133974        0.0010555981        7.2143568410
Ti         1.8879646124        7.5673176593        7.2084948451
Ti         0.0010627204        9.4620042630        2.4006695718
Ti         9.4619973535        1.8880258967        4.8064857244
Ti         7.5673316309        0.0010029704       -0.0048537325
Ti         3.7769849921        3.7769688059       -0.0000033346
Ti        13.2373941377       13.2374095412        4.8075199382
Ti        11.3507428881        5.6718545685        2.4008781019
Ti         5.6718378738       11.3507565739        7.2141782651
Ti        13.2374700655        3.7769304296        7.2080426636
Ti         3.7769342583       13.2374602117        2.4069596817
Ti         5.6718108947        5.6718347737        4.8074939870
Ti        11.3507863766       11.3507672268       -0.0000281551
Ti        11.3508391140       13.2374318533        2.4057993749
Ti         5.6718780225        3.7768676432        7.2128111483
Ti         3.7769531319       11.3506862952       -0.0011895790
Ti        13.2375188806        5.6718435857        4.8124466803
Ti         5.6718237626       13.2375396858        4.8025761285
Ti        11.3506854966        3.7769584473        0.0012142059
Ti        13.2374281206       11.3508532288        7.2092209397
Ti         3.7768718979        5.6718647878        2.4022080734
Ti         3.7768755349        7.5673128165        0.0015311371
Ti        13.2374709563        9.4620127864        4.8106438368
Ti         7.5673322196        5.6718338323        2.4037125705
Ti         9.4620073610       11.3506818045        7.2123957391
Ti        13.2375077993        7.5673500837        7.2063746387
Ti         3.7769950160        9.4619664914        2.4038768526
Ti         9.4620871865        5.6718577621        4.8091351755
Ti         7.5673144602       11.3507451446       -0.0028551544
Ti        11.3506769190        9.4620062911        2.4026335079
Ti         5.6718284561        7.5673498038        7.2113104085
Ti         5.6718772308        9.4620581663        4.8058636403
Ti        11.3507404400        7.5673272475        0.0028390606
Ti         9.4619702001        3.7769719210        7.2111486035
Ti         7.5673367139       13.2375178239        2.4086372163
Ti         7.5673084777        3.7768791637       -0.0015063042
Ti         9.4620343183       13.2374544147        4.8044027785
Ti         7.5673471574        7.5673394199       -0.0000039304
Ti         9.4619775317        9.4619647530        4.8074927506
Ti         7.5673093234        9.4620657179        2.4053399886
Ti         9.4620874606        7.5673106551        7.2096435698
O         0.0003766233        0.0001210784        1.9771372759
O         1.8872366020        1.8886719025        6.7811726447
O         0.0001701938        1.8874305894        4.3800021753
O         1.8886530483        0.0004159332        9.1857954438
O         1.8874445491        0.0001904783        5.2350087305
O         0.0003997587        1.8886600305        0.4292544775
O         1.8886792486        1.8872063809        2.8338509199
O         0.0001277867        0.0003925828        7.6379323764
O         0.0003244765        3.7771123498        1.9784195484
O         1.8874409612       13.2383318039        6.7837326814
O        11.3500131797        1.8872845036        4.3773228492
O         5.6712523382        0.0003521786        9.1909227249
O         1.8868570949        3.7771956138        5.2336575616
O         0.0003625756       13.2384028639        0.4267152540
O         5.6712812419        1.8867608199        2.8285607076
O        11.3500105302        0.0003954639        7.6405828123
O         3.7771039181        0.0003683203        7.6366238826
O        13.2383413751        1.8874347203        2.8313203101
O        13.2383993580        0.0003716362        9.1883209493
O         3.7771951089        1.8868536447        4.3813389306
O         1.8867359559        5.6712576650        6.7864114447
O         0.0003703631       11.3500235797        1.9744524525
O         0.0003200405        5.6712547352        0.4241053003
O         1.8872617921       11.3499949830        5.2377324745
O         0.0003247089        7.5679138532        1.9795882645
O         1.8868499799        9.4617401571        6.7850049556
O         7.5678940325        1.8867810871        4.3826329615
O         9.4618234452        0.0003606397        9.1895422251
O         1.8867779534        7.5678886045        5.2323566814
O         0.0003155425        9.4618138272        0.4255106530
O         9.4617628371        1.8868884308        2.8300235251
O         7.5679243552        0.0003994911        7.6354093032
O         3.7667573508        0.0002496924        1.9758835335
O        13.2382371431        1.8886461976        6.7820499215
O         0.0002444705        5.6623203725        4.3786535210
O         1.8886616299       11.3511925227        9.1850218817
O        13.2382365772        0.0001254424        5.2341503416
O         3.7667830382        1.8886898312        0.4303172402
O         1.8885917087        5.6621703408        2.8349987971
O         0.0001684816       11.3510377058        7.6387696567
O        11.3511813965        1.8886693942        0.4300239601
O         5.6622357219        0.0002528034        5.2363704281
O         5.6622062538        1.8885806661        6.7800104044
O        11.3510362231        0.0001732641        1.9762876857
O         1.8886904937        3.7668039031        9.1846621001
O         0.0001333685       13.2382422263        4.3808981882
O         0.0002484741        3.7667643000        7.6391343600
O         1.8886601208       13.2382537188        2.8329937048
O         3.7666281628        3.7772624225        1.9775002979
O        13.2382605550       13.2383954598        6.7845547678
O        11.3501042556        5.6622961525        4.3761144571
O         5.6712620597       11.3517021238        9.1902430542
O        13.2382240945        3.7771137460        5.2328801405
O         3.7667712823       13.2382782511        0.4278550842
O         5.6712242316        5.6620222375        2.8289973148
O        11.3500189975       11.3512224310        7.6413994491
O        11.3510181986       13.2383363967        0.4274974954
O         5.6621201858        3.7771909411        5.2343265573
O         3.7771683864       11.3515935274        7.6373829080
O        13.2382867711        5.6621888539        2.8326834400
O         5.6622683802       13.2382878435        6.7823763159
O        11.3515942222        3.7771799964        1.9776738564
O        13.2383616927       11.3510452919        9.1875093378
O         3.7771973704        5.6620574395        4.3806450236
O         5.6619149865        5.6712311046        6.7860148842
O        11.3512101659       11.3500051086        1.9736055817
O        13.2382791173        3.7668028742        9.1871685463
O         3.7771000375       13.2382358515        4.3821345581
O        11.3517194994        5.6712688357        0.4248107532
O         5.6621534197       11.3501096568        5.2389264092
O         3.7772875488        3.7665999847        7.6375106078
O        13.2383937892       13.2382438890        2.8304620001
O        13.2382272740       11.3500228580        5.2368457839
O         3.7665676732        5.6712907661        0.4248569326
O         5.6712444885       13.2381778769        2.8278396835
O        11.3499987082        3.7668178999        7.6417243394
O         3.7668478764       11.3499796298        1.9733008184
O        13.2382261025        5.6712506706        6.7871631021
O        11.3500270884       13.2381865053        4.3781750621
O         5.6713018227        3.7665585378        9.1901872240
O         3.7665613027        7.5678866289        1.9788435543
O        13.2382812628        9.4618326718        6.7857619908
O         7.5679064185        5.6620400842        4.3821772543
O         9.4617686840       11.3516258399        9.1888074443
O        13.2382444894        7.5679236688        5.2316683983
O         3.7666507608        9.4616749300        0.4263880583
O         9.4617434300        5.6619810962        2.8307283124
O         7.5678952506       11.3517290162        7.6361274803
O        11.3516206663        9.4617610357        0.4261909128
O         5.6618950552        7.5679041044        5.2328925779
O         5.6621642197        9.4617517595        6.7842948933
O        11.3517360866        7.5679196387        1.9789205415
O         9.4616593613        3.7666385084        9.1886095235
O         7.5679203166       13.2381424561        4.3833698984
O         7.5678696075        3.7665481551        7.6362276326
O         9.4618272849       13.2381790038        2.8292575787
O         7.5776224805        0.0002419719        1.9749543101
O         9.4716112018        1.8886784417        6.7809340928
O         0.0002570951        9.4716385547        4.3797171096
O         1.8885981621        7.5775757287        9.1837969169
O         9.4716475118        0.0002615007        5.2352949404
O         7.5776076735        1.8885887771        0.4312466949
O         1.8886998085        9.4716678489        2.8340765869
O         0.0002409072        7.5776598760        7.6400896433
O         7.5778740113        3.7771942364        1.9769583513
O         9.4716437660       13.2382608556        6.7834585960
O        11.3499889824        9.4716492193        4.3771250847
O         5.6712505043        7.5778740193        9.1897973468
O         9.4718152154        3.7772821493        5.2337396590
O         7.5776401090       13.2382865460        0.4288741432
O         5.6713013977        9.4719191827        2.8286388374
O        11.3500815169        7.5776683972        7.6425964716
O         3.7771974097        7.5779148726        7.6380812374
O        13.2382626767        9.4716585095        2.8315975042
O        13.2382794139        7.5776412428        9.1861308901
O         3.7772884647        9.4718280994        4.3813207009
O         9.4718612150        5.6712794581        6.7863768033
O         7.5776578141       11.3501054583        1.9723619413
O         7.5778717027        5.6712555583        0.4252638840
O         9.4715706939       11.3499854543        5.2379766080
O         7.5780327779        7.5679091572        1.9784140611
O         9.4717612297        9.4616697705        6.7849085935
O         7.5678689986        9.4719117093        4.3825455035
O         9.4617500340        7.5777686698        9.1880766104
O         9.4718435665        7.5678561134        5.2323924525
O         7.5777308328        9.4617466604        0.4269657882
O         9.4616509550        9.4718830663        2.8300783320
O         7.5679388687        7.5780048864        7.6365777574
     192
 i =        3, E =     -5767.6745341625
Ti         0.0002139967        0.0002233351        0.0000316398
Ti         1.8883849635        1.8883571785        4.8075062222
Ti         0.0002321726        1.8884117951        2.4036221921
Ti         1.8884065811        0.0002232478        7.2114279123
Ti         0.0002457561        3.7745958098        0.0025349287
Ti         1.8884182645       13.2383027178        4.8073612311
Ti        11.3502882072        1.8883682908        2.4037106418
Ti         5.6700389435        0.0002034814        7.2156088015
Ti         1.8883392653        3.7745440492        7.2088375546
Ti         0.0002274214       13.2383194896        2.4037972169
Ti         5.6700058326        1.8882000363        4.8032077907
Ti        11.3502432110        0.0002336647       -0.0001163452
Ti         3.7745895854        0.0002421195       -0.0025413908
Ti        13.2383101634        1.8884231674        4.8076811380
Ti        13.2383165935        0.0002296850        7.2112532675
Ti         3.7745519821        1.8883397848        2.4061613114
Ti         1.8881923269        5.6700125808        4.8117821968
Ti         0.0002283516       11.3502404878        0.0001467597
Ti         0.0001911270        5.6700177324        2.3994024414
Ti         1.8883747647       11.3502891677        7.2113387950
Ti         0.0002128296        7.5692617595        0.0042669526
Ti         1.8883297861        9.4643062513        4.8098323992
Ti         7.5692798772        1.8882036962        2.4079613424
Ti         9.4642668879        0.0002395076        7.2136622014
Ti         1.8882250215        7.5692962675        7.2070545311
Ti         0.0002372419        9.4642739187        2.4013708998
Ti         9.4643058980        1.8883245244        4.8051983384
Ti         7.5692625518        0.0002139726       -0.0042591690
Ti         3.7745653744        3.7745551199       -0.0000115749
Ti        13.2383205352       13.2383265312        4.8075101982
Ti        11.3504564649        5.6700065581        2.3994232114
Ti         5.6699979575       11.3504660620        7.2156158660
Ti        13.2382965734        3.7745935967        7.2087538416
Ti         3.7745965464       13.2382918513        2.4062829766
Ti         5.6698991258        5.6699160712        4.8075119844
Ti        11.3502816967       11.3502806166       -0.0000145656
Ti        11.3502294873       13.2383069987        2.4038851748
Ti         5.6699705216        3.7743939360        7.2130180544
Ti         3.7745481331       11.3503119901       -0.0024584065
Ti        13.2383375894        5.6700312232        4.8118759677
Ti         5.6700130357       13.2383318401        4.8031525085
Ti        11.3503300636        3.7745537418        0.0024850752
Ti        13.2383102663       11.3502393665        7.2111424013
Ti         3.7743886048        5.6699893511        2.4019964926
Ti         3.7744028217        7.5693047363        0.0016745728
Ti        13.2382914717        9.4642648280        4.8099160379
Ti         7.5693886379        5.6699237339        2.4036686858
Ti         9.4643071096       11.3503169936        7.2136285588
Ti        13.2383287302        7.5692777441        7.2069823532
Ti         3.7745586136        9.4643034046        2.4038981667
Ti         9.4644606782        5.6700050715        4.8093620425
Ti         7.5692727806       11.3504527375       -0.0042557843
Ti        11.3503256699        9.4643175534        2.4013998070
Ti         5.6699070471        7.5693988363        7.2113477992
Ti         5.6699606222        9.4644634296        4.8056613117
Ti        11.3504397735        7.5693042633        0.0042443555
Ti         9.4643091940        3.7745558768        7.2111372919
Ti         7.5692625041       13.2383296625        2.4080323471
Ti         7.5692986800        3.7744061250       -0.0016592865
Ti         9.4642617055       13.2382771177        4.8051102026
Ti         7.5693843263        7.5693719690       -0.0000023364
Ti         9.4643234958        9.4642892882        4.8075002400
Ti         7.5693465860        9.4644518930        2.4055298539
Ti         9.4644572565        7.5693369547        7.2094603270
O         0.0013786321        0.0017103055        1.9745798199
O         1.8841155801        1.8868977525        6.7783843161
O         0.0016880691        1.8841153905        4.3793713401
O         1.8868904672        0.0014027793        9.1811196526
O         1.8841147489        0.0016795113        5.2356606506
O         0.0014247929        1.8869085540        0.4339242939
O         1.8869080850        1.8841264087        2.8366314846
O         0.0017148891        0.0013901193        7.6405030038
O         0.0013986938        3.7764513735        1.9733433018
O         1.8840826459       13.2368418478        6.7831486483
O        11.3517470911        1.8841476884        4.3746726376
O         5.6710826337        0.0013019123        9.1878890675
O         1.8840941761        3.7764388342        5.2367136955
O         0.0013955662       13.2368214507        0.4292311285
O         5.6710829048        1.8839545776        2.8295530967
O        11.3517386209        0.0014129932        7.6451174085
O         3.7764591247        0.0014161527        7.6416895849
O        13.2368417148        1.8840760143        2.8319050463
O        13.2368156532        0.0013957649        9.1858135525
O         3.7764480101        1.8840917051        4.3782738856
O         1.8839303785        5.6710762831        6.7854356683
O         0.0014279387       11.3517487801        1.9699274297