 DBCSR| CPU Multiplication driver                                           XSMM (U)
 DBCSR| Multrec recursion limit                                              512 (U)
 DBCSR| Multiplication stack size                                           1000 (D)
 DBCSR| Maximum elements for images                                    UNLIMITED (U)
 DBCSR| Multiplicative factor virtual images                                   1 (U)
 DBCSR| Use multiplication densification                                       T (D)
 DBCSR| Multiplication size stacks                                             3 (U)
 DBCSR| Use memory pool for CPU allocation                                     F (U)
 DBCSR| Number of 3D layers                                               SINGLE (U)
 DBCSR| Use MPI memory allocation                                              F (U)
 DBCSR| Use RMA algorithm                                                      F (U)
 DBCSR| Use Communication thread                                               T (U)
 DBCSR| Communication thread load                                             87 (D)
 DBCSR| MPI: My process id                                                     0
 DBCSR| MPI: Number of processes                                             128
 DBCSR| OMP: Current number of threads                                         1
 DBCSR| OMP: Max number of threads                                             1
 DBCSR| Split modifier for TAS multiplication algorithm                  1.0E+00 (U)


  **** **** ******  **  PROGRAM STARTED AT               2025-06-19 09:43:00.408
 ***** ** ***  *** **   PROGRAM STARTED ON                             nid006738
 **    ****   ******    PROGRAM STARTED BY                                cahart
 ***** **    ** ** **   PROGRAM PROCESS ID                                 27165
  **** **  *******  **  PROGRAM STARTED IN /mnt/lustre/a2fs-work2/work/e05/e05/c
                                           ahart/postdoc2/work/group/tio2/anatas
                                           e/cell-441/geo-opt/mp-390/hole/from-n
                                           eutral/pbe-u-o/u-2.6

 CP2K| version string:                                       CP2K version 2024.3
 CP2K| source code revision number:                                  git:6712648
 CP2K| cp2kflags: omp libint fftw3 libxc libgrpp elpa parallel scalapack cosma x
 CP2K|            smm plumed2 spglib mkl sirius libvori libbqb libvdwxc hdf5
 CP2K| is freely available from                            https://www.cp2k.org/
 CP2K| Program compiled at                       Thu 12 Sep 2024 10:20:47 AM BST
 CP2K| Program compiled on                                                  ln04
 CP2K| Program compiled for                                                local
 CP2K| Data directory path    /mnt/lustre/a2fs-work1/work/y07/shared/apps/core/c
 CP2K| Input file name                                                 input.inp

 GLOBAL| Force Environment number                                              1
 GLOBAL| Basis set file name                                        BASIS_MOLOPT
 GLOBAL| Potential file name                                      GTH_POTENTIALS
 GLOBAL| MM Potential file name                                     MM_POTENTIAL
 GLOBAL| Coordinate file name                                         system.xyz
 GLOBAL| Method name                                                        CP2K
 GLOBAL| Project name                                                       tio2
 GLOBAL| Run type                                                        GEO_OPT
 GLOBAL| FFT library                                                       FFTW3
 GLOBAL| Diagonalization library                                            ELPA
 GLOBAL| DGEMM library                                                      BLAS
 GLOBAL| Minimum number of eigenvectors for ELPA usage                        16
 GLOBAL| Orthonormality check for eigenvectors                          DISABLED
 GLOBAL| Matrix multiplication library                                     COSMA
 GLOBAL| All-to-all communication in single precision                          F
 GLOBAL| FFTs using library dependent lengths                                  F
 GLOBAL| Grid backend                                                       AUTO
 GLOBAL| Global print level                                               MEDIUM
 GLOBAL| MPI I/O enabled                                                       T
 GLOBAL| Total number of message passing processes                           128
 GLOBAL| Number of threads for this process                                    1
 GLOBAL| This output is from process                                           0
 GLOBAL| Stack size for threads created by OpenMP (OMP_STACKSIZE)        default
 GLOBAL| CPU model name                          AMD EPYC 7742 64-Core Processor
 GLOBAL| CPUID                                                              1002

 MEMORY| system memory details [Kb]
 MEMORY|                        rank 0           min           max       average
 MEMORY| MemTotal            263341712     263341712     263341712     263341712
 MEMORY| MemFree             234665712     234665712     234665712     234665712
 MEMORY| Buffers                     0             0             0             0
 MEMORY| Cached                1880880       1880880       1880880       1880880
 MEMORY| Slab                  6040180       6040180       6040180       6040180
 MEMORY| SReclaimable           908148        908148        908148        908148
 MEMORY| MemLikelyFree       237454740     237454740     237454740     237454740


 *** Fundamental physical constants (SI units) ***

 *** Literature: B. J. Mohr and B. N. Taylor,
 ***             CODATA recommended values of the fundamental physical
 ***             constants: 2006, Web Version 5.1
 ***             http://physics.nist.gov/constants

 Speed of light in vacuum [m/s]                             2.99792458000000E+08
 Magnetic constant or permeability of vacuum [N/A**2]       1.25663706143592E-06
 Electric constant or permittivity of vacuum [F/m]          8.85418781762039E-12
 Planck constant (h) [J*s]                                  6.62606896000000E-34
 Planck constant (h-bar) [J*s]                              1.05457162825177E-34
 Elementary charge [C]                                      1.60217648700000E-19
 Electron mass [kg]                                         9.10938215000000E-31
 Electron g factor [ ]                                     -2.00231930436220E+00
 Proton mass [kg]                                           1.67262163700000E-27
 Fine-structure constant                                    7.29735253760000E-03
 Rydberg constant [1/m]                                     1.09737315685270E+07
 Avogadro constant [1/mol]                                  6.02214179000000E+23
 Boltzmann constant [J/K]                                   1.38065040000000E-23
 Atomic mass unit [kg]                                      1.66053878200000E-27
 Bohr radius [m]                                            5.29177208590000E-11

 *** Conversion factors ***

 [u] -> [a.u.]                                              1.82288848426455E+03
 [Angstrom] -> [Bohr] = [a.u.]                              1.88972613288564E+00
 [a.u.] = [Bohr] -> [Angstrom]                              5.29177208590000E-01
 [a.u.] -> [s]                                              2.41888432650478E-17
 [a.u.] -> [fs]                                             2.41888432650478E-02
 [a.u.] -> [J]                                              4.35974393937059E-18
 [a.u.] -> [N]                                              8.23872205491840E-08
 [a.u.] -> [K]                                              3.15774647902944E+05
 [a.u.] -> [kJ/mol]                                         2.62549961709828E+03
 [a.u.] -> [kcal/mol]                                       6.27509468713739E+02
 [a.u.] -> [Pa]                                             2.94210107994716E+13
 [a.u.] -> [bar]                                            2.94210107994716E+08
 [a.u.] -> [atm]                                            2.90362800883016E+08
 [a.u.] -> [eV]                                             2.72113838565563E+01
 [a.u.] -> [Hz]                                             6.57968392072181E+15
 [a.u.] -> [1/cm] (wave numbers)                            2.19474631370540E+05
 [a.u./Bohr**2] -> [1/cm]                                   5.14048714338585E+03
 

 CELL_TOP| Volume [angstrom^3]:                                      2198.132028
 CELL_TOP| Vector a [angstrom    15.120     0.000     0.000   |a| =    15.120000
 CELL_TOP| Vector b [angstrom     0.000    15.120     0.000   |b| =    15.120000
 CELL_TOP| Vector c [angstrom     0.000     0.000     9.615   |c| =     9.615020
 CELL_TOP| Angle (b,c), alpha [degree]:                                90.000000
 CELL_TOP| Angle (a,c), beta  [degree]:                                90.000000
 CELL_TOP| Angle (a,b), gamma [degree]:                                90.000000
 CELL_TOP| Requested initial symmetry:                       MONOCLINIC_GAMMA_AB
 CELL_TOP| Numerically orthorhombic:                                         YES
 CELL_TOP| Periodicity                                                       XYZ

 *** WARNING in atoms_input.F:123 :: Overwriting coordinates. Active    ***
 *** coordinates read from &COORD section. Active coordinates READ from ***
 *** &COORD section                                                     ***


 GENERATE|  Preliminary Number of Bonds generated:                             0
 GENERATE|  Achieved consistency in connectivity generation.

 CELL| Volume [angstrom^3]:                                          2198.132028
 CELL| Vector a [angstrom]:      15.120     0.000     0.000   |a| =    15.120000
 CELL| Vector b [angstrom]:       0.000    15.120     0.000   |b| =    15.120000
 CELL| Vector c [angstrom]:       0.000     0.000     9.615   |c| =     9.615020
 CELL| Angle (b,c), alpha [degree]:                                    90.000000
 CELL| Angle (a,c), beta  [degree]:                                    90.000000
 CELL| Angle (a,b), gamma [degree]:                                    90.000000
 CELL| Requested initial symmetry:                           MONOCLINIC_GAMMA_AB
 CELL| Numerically orthorhombic:                                             YES
 CELL| Periodicity                                                           XYZ

 CELL_REF| Volume [angstrom^3]:                                      2198.132028
 CELL_REF| Vector a [angstrom    15.120     0.000     0.000   |a| =    15.120000
 CELL_REF| Vector b [angstrom     0.000    15.120     0.000   |b| =    15.120000
 CELL_REF| Vector c [angstrom     0.000     0.000     9.615   |c| =     9.615020
 CELL_REF| Angle (b,c), alpha [degree]:                                90.000000
 CELL_REF| Angle (a,c), beta  [degree]:                                90.000000
 CELL_REF| Angle (a,b), gamma [degree]:                                90.000000
 CELL_REF| Requested initial symmetry:                       MONOCLINIC_GAMMA_AB
 CELL_REF| Numerically orthorhombic:                                         YES
 CELL_REF| Periodicity                                                       XYZ

 *******************************************************************************
 *******************************************************************************
 **                                                                           **
 **     #####                         ##              ##                      **
 **    ##   ##            ##          ##              ##                      **
 **   ##     ##                       ##            ######                    **
 **   ##     ##  ##   ##  ##   #####  ##  ##   ####   ##    #####    #####    **
 **   ##     ##  ##   ##  ##  ##      ## ##   ##      ##   ##   ##  ##   ##   **
 **   ##  ## ##  ##   ##  ##  ##      ####     ###    ##   ######   ######    **
 **    ##  ###   ##   ##  ##  ##      ## ##      ##   ##   ##       ##        **
 **     #######   #####   ##   #####  ##  ##  ####    ##    #####   ##        **
 **           ##                                                    ##        **
 **                                                                           **
 **                                                ... make the atoms dance   **
 **                                                                           **
 **            Copyright (C) by CP2K developers group (2000-2024)             **
 **                      J. Chem. Phys. 152, 194103 (2020)                    **
 **                                                                           **
 *******************************************************************************

 DFT| Spin unrestricted (spin-polarized) Kohn-Sham calculation               UKS
 DFT| Multiplicity                                                             2
 DFT| Number of spin states                                                    2
 DFT| Charge                                                                   1
 DFT| Self-interaction correction (SIC)                                       NO
 DFT| Cutoffs: density                                              1.000000E-10
 DFT|          gradient                                             1.000000E-10
 DFT|          tau                                                  1.000000E-10
 DFT|          cutoff_smoothing_range                               0.000000E+00
 DFT| XC density smoothing                                                  NONE
 DFT| XC derivatives                                                          PW

 DFT+U| Method                                                          MULLIKEN
 DFT+U| Check atomic kind information for details

 FUNCTIONAL| PBE:
 FUNCTIONAL| J.P.Perdew, K.Burke, M.Ernzerhof, Phys. Rev. Letter, vol. 77, n 18,
 FUNCTIONAL|  pp. 3865-3868, (1996) {spin polarized}                            


 QS| Method:                                                                 GPW
 QS| Density plane wave grid type                        NON-SPHERICAL FULLSPACE
 QS| Number of grid levels:                                                    4
 QS| Density cutoff [a.u.]:                                                300.0
 QS| Multi grid cutoff [a.u.]: 1) grid level                               300.0
 QS|                           2) grid level                               100.0
 QS|                           3) grid level                                33.3
 QS|                           4) grid level                                11.1
 QS| Grid level progression factor:                                          3.0
 QS| Relative density cutoff [a.u.]:                                        20.0
 QS| Interaction thresholds: eps_pgf_orb:                                1.0E-06
 QS|                         eps_filter_matrix:                          0.0E+00
 QS|                         eps_core_charge:                            1.0E-14
 QS|                         eps_rho_gspace:                             1.0E-12
 QS|                         eps_rho_rspace:                             1.0E-12
 QS|                         eps_gvg_rspace:                             1.0E-06
 QS|                         eps_ppl:                                    1.0E-02
 QS|                         eps_ppnl:                                   1.0E-08


 ATOMIC KIND INFORMATION

  1. Atomic kind: Ti                                    Number of atoms:      64

     Orbital Basis Set                                    DZVP-MOLOPT-SR-GTH-q12

       Number of orbital shell sets:                                           1
       Number of orbital shells:                                               8
       Number of primitive Cartesian functions:                                6
       Number of Cartesian basis functions:                                   31
       Number of spherical basis functions:                                   26
       Norm type:                                                              2

       Normalised Cartesian orbitals:

                        Set   Shell   Orbital            Exponent    Coefficient

                          1       1    2s                7.884570       0.015554
                                                         3.894698       0.963603
                                                         1.513589      -0.631435
                                                         0.596768      -0.343022
                                                         0.222222      -0.006534
                                                         0.077078       0.007652

                          1       2    3s                7.884570      -0.009340
                                                         3.894698       0.212624
                                                         1.513589      -0.258368
                                                         0.596768      -0.226206
                                                         0.222222       0.039438
                                                         0.077078       0.107179

                          1       3    4s                7.884570       0.276563
                                                         3.894698       0.105452
                                                         1.513589       0.085149
                                                         0.596768       0.882541
                                                         0.222222      -0.696223
                                                         0.077078       0.156638

                          1       4    3px               7.884570      -2.034794
                                                         3.894698       0.782008
                                                         1.513589       1.253903
                                                         0.596768       0.347823
                                                         0.222222       0.016778
                                                         0.077078      -0.000433
                          1       4    3py               7.884570      -2.034794
                                                         3.894698       0.782008
                                                         1.513589       1.253903
                                                         0.596768       0.347823
                                                         0.222222       0.016778
                                                         0.077078      -0.000433
                          1       4    3pz               7.884570      -2.034794
                                                         3.894698       0.782008
                                                         1.513589       1.253903
                                                         0.596768       0.347823
                                                         0.222222       0.016778
                                                         0.077078      -0.000433

                          1       5    4px               7.884570       0.376572
                                                         3.894698      -0.182875
                                                         1.513589      -0.474776
                                                         0.596768      -0.081757
                                                         0.222222       0.064432
                                                         0.077078       0.047279
                          1       5    4py               7.884570       0.376572
                                                         3.894698      -0.182875
                                                         1.513589      -0.474776
                                                         0.596768      -0.081757
                                                         0.222222       0.064432
                                                         0.077078       0.047279
                          1       5    4pz               7.884570       0.376572
                                                         3.894698      -0.182875
                                                         1.513589      -0.474776
                                                         0.596768      -0.081757
                                                         0.222222       0.064432
                                                         0.077078       0.047279

                          1       6    4dx2              7.884570       3.047350
                                                         3.894698       3.289529
                                                         1.513589       1.060616
                                                         0.596768       0.249930
                                                         0.222222       0.038806
                                                         0.077078       0.002319
                          1       6    4dxy              7.884570       5.278165
                                                         3.894698       5.697631
                                                         1.513589       1.837041
                                                         0.596768       0.432892
                                                         0.222222       0.067214
                                                         0.077078       0.004017
                          1       6    4dxz              7.884570       5.278165
                                                         3.894698       5.697631
                                                         1.513589       1.837041
                                                         0.596768       0.432892
                                                         0.222222       0.067214
                                                         0.077078       0.004017
                          1       6    4dy2              7.884570       3.047350
                                                         3.894698       3.289529
                                                         1.513589       1.060616
                                                         0.596768       0.249930
                                                         0.222222       0.038806
                                                         0.077078       0.002319
                          1       6    4dyz              7.884570       5.278165
                                                         3.894698       5.697631
                                                         1.513589       1.837041
                                                         0.596768       0.432892
                                                         0.222222       0.067214
                                                         0.077078       0.004017
                          1       6    4dz2              7.884570       3.047350
                                                         3.894698       3.289529
                                                         1.513589       1.060616
                                                         0.596768       0.249930
                                                         0.222222       0.038806
                                                         0.077078       0.002319

                          1       7    5dx2              7.884570      -2.119015
                                                         3.894698      -1.237751
                                                         1.513589      -0.746777
                                                         0.596768      -0.071514
                                                         0.222222       0.004086
                                                         0.077078       0.017595
                          1       7    5dxy              7.884570      -3.670241
                                                         3.894698      -2.143848
                                                         1.513589      -1.293455
                                                         0.596768      -0.123865
                                                         0.222222       0.007077
                                                         0.077078       0.030475
                          1       7    5dxz              7.884570      -3.670241
                                                         3.894698      -2.143848
                                                         1.513589      -1.293455
                                                         0.596768      -0.123865
                                                         0.222222       0.007077
                                                         0.077078       0.030475
                          1       7    5dy2              7.884570      -2.119015
                                                         3.894698      -1.237751
                                                         1.513589      -0.746777
                                                         0.596768      -0.071514
                                                         0.222222       0.004086
                                                         0.077078       0.017595
                          1       7    5dyz              7.884570      -3.670241
                                                         3.894698      -2.143848
                                                         1.513589      -1.293455
                                                         0.596768      -0.123865
                                                         0.222222       0.007077
                                                         0.077078       0.030475
                          1       7    5dz2              7.884570      -2.119015
                                                         3.894698      -1.237751
                                                         1.513589      -0.746777
                                                         0.596768      -0.071514
                                                         0.222222       0.004086
                                                         0.077078       0.017595

                          1       8    5fx3              7.884570      -0.342058
                                                         3.894698       0.375798
                                                         1.513589      -0.706469
                                                         0.596768      -0.229994
                                                         0.222222      -0.012723
                                                         0.077078       0.003932
                          1       8    5fx2y             7.884570      -0.764866
                                                         3.894698       0.840310
                                                         1.513589      -1.579712
                                                         0.596768      -0.514282
                                                         0.222222      -0.028450
                                                         0.077078       0.008792
                          1       8    5fx2z             7.884570      -0.764866
                                                         3.894698       0.840310
                                                         1.513589      -1.579712
                                                         0.596768      -0.514282
                                                         0.222222      -0.028450
                                                         0.077078       0.008792
                          1       8    5fxy2             7.884570      -0.764866
                                                         3.894698       0.840310
                                                         1.513589      -1.579712
                                                         0.596768      -0.514282
                                                         0.222222      -0.028450
                                                         0.077078       0.008792
                          1       8    5fxyz             7.884570      -1.324787
                                                         3.894698       1.455460
                                                         1.513589      -2.736142
                                                         0.596768      -0.890763
                                                         0.222222      -0.049276
                                                         0.077078       0.015229
                          1       8    5fxz2             7.884570      -0.764866
                                                         3.894698       0.840310
                                                         1.513589      -1.579712
                                                         0.596768      -0.514282
                                                         0.222222      -0.028450
                                                         0.077078       0.008792
                          1       8    5fy3              7.884570      -0.342058
                                                         3.894698       0.375798
                                                         1.513589      -0.706469
                                                         0.596768      -0.229994
                                                         0.222222      -0.012723
                                                         0.077078       0.003932
                          1       8    5fy2z             7.884570      -0.764866
                                                         3.894698       0.840310
                                                         1.513589      -1.579712
                                                         0.596768      -0.514282
                                                         0.222222      -0.028450
                                                         0.077078       0.008792
                          1       8    5fyz2             7.884570      -0.764866
                                                         3.894698       0.840310
                                                         1.513589      -1.579712
                                                         0.596768      -0.514282
                                                         0.222222      -0.028450
                                                         0.077078       0.008792
                          1       8    5fz3              7.884570      -0.342058
                                                         3.894698       0.375798
                                                         1.513589      -0.706469
                                                         0.596768      -0.229994
                                                         0.222222      -0.012723
                                                         0.077078       0.003932

       Atomic covalent radius [Angstrom]:                                  1.320

       Atomic van der Waals radius [Angstrom]:                             1.760

     GTH Potential information for                                   GTH-PBE-q12

       Description:                       Goedecker-Teter-Hutter pseudopotential
                                           Goedecker et al., PRB 54, 1703 (1996)
                                          Hartwigsen et al., PRB 58, 3641 (1998)
                                                      Krack, TCA 114, 145 (2005)

       Gaussian exponent of the core charge distribution:               3.462604
       Electronic configuration (s p d ...):                           4   6   2

       Parameters of the local part of the GTH pseudopotential:

                          rloc        C1          C2          C3          C4
                        0.380000    8.711442   -0.700287

       Parameters of the non-local part of the GTH pseudopotential:

                   l      r(l)      h(i,j,l)

                   0    0.337771    2.575264    3.692971
                                    3.692971   -4.767605
                   1    0.242531   -4.630541    8.870875
                                    8.870875  -10.496161
                   2    0.243317   -9.406653

  2. Atomic kind: O                                     Number of atoms:     128

     Orbital Basis Set                                     DZVP-MOLOPT-SR-GTH-q6

       Number of orbital shell sets:                                           1
       Number of orbital shells:                                               5
       Number of primitive Cartesian functions:                                5
       Number of Cartesian basis functions:                                   14
       Number of spherical basis functions:                                   13
       Norm type:                                                              2

       Normalised Cartesian orbitals:

                        Set   Shell   Orbital            Exponent    Coefficient

                          1       1    2s               10.389228       0.396646
                                                         3.849621       0.208811
                                                         1.388401      -0.301641
                                                         0.496955      -0.274061
                                                         0.162492      -0.033677

                          1       2    3s               10.389228       0.303673
                                                         3.849621       0.240943
                                                         1.388401      -0.313066
                                                         0.496955      -0.043055
                                                         0.162492       0.213991

                          1       3    3px              10.389228      -1.530415
                                                         3.849621      -1.371928
                                                         1.388401      -0.761951
                                                         0.496955      -0.253695
                                                         0.162492      -0.035541
                          1       3    3py              10.389228      -1.530415
                                                         3.849621      -1.371928
                                                         1.388401      -0.761951
                                                         0.496955      -0.253695
                                                         0.162492      -0.035541
                          1       3    3pz              10.389228      -1.530415
                                                         3.849621      -1.371928
                                                         1.388401      -0.761951
                                                         0.496955      -0.253695
                                                         0.162492      -0.035541

                          1       4    4px              10.389228      -0.565392
                                                         3.849621      -0.038231
                                                         1.388401      -0.382373
                                                         0.496955       0.179070
                                                         0.162492       0.122714
                          1       4    4py              10.389228      -0.565392
                                                         3.849621      -0.038231
                                                         1.388401      -0.382373
                                                         0.496955       0.179070
                                                         0.162492       0.122714
                          1       4    4pz              10.389228      -0.565392
                                                         3.849621      -0.038231
                                                         1.388401      -0.382373
                                                         0.496955       0.179070
                                                         0.162492       0.122714

                          1       5    4dx2             10.389228       1.867377
                                                         3.849621       0.670994
                                                         1.388401       1.353441
                                                         0.496955       0.273538
                                                         0.162492       0.006620
                          1       5    4dxy             10.389228       3.234392
                                                         3.849621       1.162195
                                                         1.388401       2.344229
                                                         0.496955       0.473781
                                                         0.162492       0.011466
                          1       5    4dxz             10.389228       3.234392
                                                         3.849621       1.162195
                                                         1.388401       2.344229
                                                         0.496955       0.473781
                                                         0.162492       0.011466
                          1       5    4dy2             10.389228       1.867377
                                                         3.849621       0.670994
                                                         1.388401       1.353441
                                                         0.496955       0.273538
                                                         0.162492       0.006620
                          1       5    4dyz             10.389228       3.234392
                                                         3.849621       1.162195
                                                         1.388401       2.344229
                                                         0.496955       0.473781
                                                         0.162492       0.011466
                          1       5    4dz2             10.389228       1.867377
                                                         3.849621       0.670994
                                                         1.388401       1.353441
                                                         0.496955       0.273538
                                                         0.162492       0.006620

       Atomic covalent radius [Angstrom]:                                  0.730

       Atomic van der Waals radius [Angstrom]:                             1.520

     GTH Potential information for                                    GTH-PBE-q6

       Description:                       Goedecker-Teter-Hutter pseudopotential
                                           Goedecker et al., PRB 54, 1703 (1996)
                                          Hartwigsen et al., PRB 58, 3641 (1998)
                                                      Krack, TCA 114, 145 (2005)

       Gaussian exponent of the core charge distribution:               8.360253
       Electronic configuration (s p d ...):                               2   4

       Parameters of the local part of the GTH pseudopotential:

                          rloc        C1          C2          C3          C4
                        0.244554  -16.667215    2.487311

       Parameters of the non-local part of the GTH pseudopotential:

                   l      r(l)      h(i,j,l)

                   0    0.220956   18.337458
                   1    0.211332

     A DFT+U correction is applied to atoms of this atomic kind:
       Angular quantum momentum number L:                                      1
       U(eff) = (U - J) value in [eV]:                                     2.600


 MOLECULE KIND INFORMATION


 All atoms are their own molecule, skipping detailed information


 TOTAL NUMBERS AND MAXIMUM NUMBERS

  Total number of            - Atomic kinds:                                   2
                             - Atoms:                                        192
                             - Shell sets:                                   192
                             - Shells:                                      1152
                             - Primitive Cartesian functions:               1024
                             - Cartesian basis functions:                   3776
                             - Spherical basis functions:                   3328

  Maximum angular momentum of- Orbital basis functions:                        3
                             - Local part of the GTH pseudopotential:          2
                             - Non-local part of the GTH pseudopotential:      3


 MODULE QUICKSTEP: ATOMIC COORDINATES IN ANGSTROM

   Atom Kind Element         X             Y             Z       Z(eff)     Mass
      1    1 Ti   22      0.000808      0.000795     -0.000001  12.0000  47.8670
      2    1 Ti   22      1.888386      1.888396      4.807508  12.0000  47.8670
      3    1 Ti   22      0.000795      1.888368      2.402068  12.0000  47.8670
      4    1 Ti   22      1.888384      0.000793      7.212946  12.0000  47.8670
      5    1 Ti   22      0.000809      3.776024      0.003079  12.0000  47.8670
      6    1 Ti   22      1.888399     13.237830      4.805775  12.0000  47.8670
      7    1 Ti   22     11.350301      1.888379      2.403680  12.0000  47.8670
      8    1 Ti   22      5.669390      0.000839      7.216988  12.0000  47.8670
      9    1 Ti   22      1.888414      3.776043      7.209849  12.0000  47.8670
     10    1 Ti   22      0.000811     13.237794      2.403812  12.0000  47.8670
     11    1 Ti   22      5.669415      1.888494      4.803435  12.0000  47.8670
     12    1 Ti   22     11.350288      0.000781     -0.001620  12.0000  47.8670
     13    1 Ti   22      3.776031      0.000813     -0.003070  12.0000  47.8670
     14    1 Ti   22     13.237827      1.888396      4.809245  12.0000  47.8670
     15    1 Ti   22     13.237809      0.000814      7.211221  12.0000  47.8670
     16    1 Ti   22      3.776045      1.888421      2.405170  12.0000  47.8670
     17    1 Ti   22      1.888493      5.669422      4.811581  12.0000  47.8670
     18    1 Ti   22      0.000784     11.350292      0.001612  12.0000  47.8670
     19    1 Ti   22      0.000839      5.669389      2.398024  12.0000  47.8670
     20    1 Ti   22      1.888385     11.350296      7.211337  12.0000  47.8670
     21    1 Ti   22      0.000837      7.569659      0.005680  12.0000  47.8670
     22    1 Ti   22      1.888434      9.462843      4.808824  12.0000  47.8670
     23    1 Ti   22      7.569656      1.888479      2.407777  12.0000  47.8670
     24    1 Ti   22      9.462832      0.000812      7.214250  12.0000  47.8670
     25    1 Ti   22      1.888479      7.569650      7.207246  12.0000  47.8670
     26    1 Ti   22      0.000811      9.462832      2.400775  12.0000  47.8670
     27    1 Ti   22      9.462841      1.888442      4.806193  12.0000  47.8670
     28    1 Ti   22      7.569653      0.000837     -0.005677  12.0000  47.8670
     29    1 Ti   22      3.776071      3.776078     -0.000002  12.0000  47.8670
     30    1 Ti   22     13.237820     13.237826      4.807519  12.0000  47.8670
     31    1 Ti   22     11.350204      5.669408      2.399610  12.0000  47.8670
     32    1 Ti   22      5.669413     11.350191      7.215407  12.0000  47.8670
     33    1 Ti   22     13.237796      3.776041      7.208150  12.0000  47.8670
     34    1 Ti   22      3.776042     13.237794      2.406877  12.0000  47.8670
     35    1 Ti   22      5.669437      5.669440      4.807506  12.0000  47.8670
     36    1 Ti   22     11.350291     11.350295      0.000000  12.0000  47.8670
     37    1 Ti   22     11.350301     13.237818      2.405423  12.0000  47.8670
     38    1 Ti   22      5.669424      3.776154      7.213971  12.0000  47.8670
     39    1 Ti   22      3.776034     11.350261     -0.001485  12.0000  47.8670
     40    1 Ti   22     13.237784      5.669402      4.813285  12.0000  47.8670
     41    1 Ti   22      5.669407     13.237783      4.801740  12.0000  47.8670
     42    1 Ti   22     11.350251      3.776030      0.001482  12.0000  47.8670
     43    1 Ti   22     13.237820     11.350292      7.209600  12.0000  47.8670
     44    1 Ti   22      3.776153      5.669427      2.401049  12.0000  47.8670
     45    1 Ti   22      3.776146      7.569624      0.002653  12.0000  47.8670
     46    1 Ti   22     13.237814      9.462848      4.810536  12.0000  47.8670
     47    1 Ti   22      7.569628      5.669427      2.403698  12.0000  47.8670
     48    1 Ti   22      9.462832     11.350256      7.212649  12.0000  47.8670
     49    1 Ti   22     13.237782      7.569664      7.205546  12.0000  47.8670
     50    1 Ti   22      3.776077      9.462786      2.403848  12.0000  47.8670
     51    1 Ti   22      9.462720      5.669447      4.810312  12.0000  47.8670
     52    1 Ti   22      7.569646     11.350211     -0.004089  12.0000  47.8670
     53    1 Ti   22     11.350261      9.462827      2.402362  12.0000  47.8670
     54    1 Ti   22      5.669427      7.569618      7.211318  12.0000  47.8670
     55    1 Ti   22      5.669442      9.462722      4.804701  12.0000  47.8670
     56    1 Ti   22     11.350203      7.569643      0.004084  12.0000  47.8670
     57    1 Ti   22      9.462782      3.776078      7.211168  12.0000  47.8670
     58    1 Ti   22      7.569668     13.237780      2.409479  12.0000  47.8670
     59    1 Ti   22      7.569617      3.776145     -0.002654  12.0000  47.8670
     60    1 Ti   22      9.462848     13.237827      4.804486  12.0000  47.8670
     61    1 Ti   22      7.569622      7.569627      0.000002  12.0000  47.8670
     62    1 Ti   22      9.462809      9.462811      4.807507  12.0000  47.8670
     63    1 Ti   22      7.569627      9.462719      2.406498  12.0000  47.8670
     64    1 Ti   22      9.462716      7.569627      7.208521  12.0000  47.8670
     65    2 O     8      0.000904      0.001587      1.992134   6.0000  15.9994
     66    2 O     8      1.884839      1.887544      6.800015   6.0000  15.9994
     67    2 O     8      0.001577      1.884804      4.396309   6.0000  15.9994
     68    2 O     8      1.887564      0.000897      9.203345   6.0000  15.9994
     69    2 O     8      1.884806      0.001577      5.218713   6.0000  15.9994
     70    2 O     8      0.000898      1.887563      0.411676   6.0000  15.9994
     71    2 O     8      1.887544      1.884840      2.815004   6.0000  15.9994
     72    2 O     8      0.001590      0.000903      7.622885   6.0000  15.9994
     73    2 O     8      0.000933      3.775982      1.990168   6.0000  15.9994
     74    2 O     8      1.884806     13.236999      6.800061   6.0000  15.9994
     75    2 O     8     11.351142      1.884835      4.396320   6.0000  15.9994
     76    2 O     8      5.672139      0.000878      9.204641   6.0000  15.9994
     77    2 O     8      1.884951      3.775949      5.220648   6.0000  15.9994
     78    2 O     8      0.000903     13.236988      0.411624   6.0000  15.9994
     79    2 O     8      5.672120      1.884947      2.813777   6.0000  15.9994
     80    2 O     8     11.351123      0.000896      7.622879   6.0000  15.9994
     81    2 O     8      3.775983      0.000933      7.624847   6.0000  15.9994
     82    2 O     8     13.237000      1.884806      2.814959   6.0000  15.9994
     83    2 O     8     13.236990      0.000903      9.203393   6.0000  15.9994
     84    2 O     8      3.775954      1.884951      4.394368   6.0000  15.9994
     85    2 O     8      1.884945      5.672109      6.801243   6.0000  15.9994
     86    2 O     8      0.000895     11.351124      1.992141   6.0000  15.9994
     87    2 O     8      0.000877      5.672144      0.410381   6.0000  15.9994
     88    2 O     8      1.884836     11.351141      5.218700   6.0000  15.9994
     89    2 O     8      0.000876      7.566956      1.993385   6.0000  15.9994
     90    2 O     8      1.884948      9.462867      6.798192   6.0000  15.9994
     91    2 O     8      7.566987      1.884944      4.397499   6.0000  15.9994
     92    2 O     8      9.462840      0.000932      9.201498   6.0000  15.9994
     93    2 O     8      1.884944      7.566983      5.217523   6.0000  15.9994
     94    2 O     8      0.000933      9.462836      0.413524   6.0000  15.9994
     95    2 O     8      9.462867      1.884949      2.816829   6.0000  15.9994
     96    2 O     8      7.566958      0.000877      7.621638   6.0000  15.9994
     97    2 O     8      3.769756      0.001580      1.992549   6.0000  15.9994
     98    2 O     8     13.237583      1.887564      6.799584   6.0000  15.9994
     99    2 O     8      0.001603      5.655938      4.395853   6.0000  15.9994
    100    2 O     8      1.887542     11.353720      9.203773   6.0000  15.9994
    101    2 O     8     13.237579      0.001591      5.219133   6.0000  15.9994
    102    2 O     8      3.769859      1.887587      0.411284   6.0000  15.9994
    103    2 O     8      1.887721      5.656201      2.815475   6.0000  15.9994
    104    2 O     8      0.001576     11.353750      7.622466   6.0000  15.9994
    105    2 O     8     11.353719      1.887543      0.411245   6.0000  15.9994
    106    2 O     8      5.655936      0.001603      5.219166   6.0000  15.9994
    107    2 O     8      5.656205      1.887719      6.799542   6.0000  15.9994
    108    2 O     8     11.353749      0.001576      1.992554   6.0000  15.9994
    109    2 O     8      1.887585      3.769859      9.203736   6.0000  15.9994
    110    2 O     8      0.001589     13.237578      4.395884   6.0000  15.9994
    111    2 O     8      0.001580      3.769756      7.622469   6.0000  15.9994
    112    2 O     8      1.887564     13.237583      2.815436   6.0000  15.9994
    113    2 O     8      3.770031      3.775987      1.990650   6.0000  15.9994
    114    2 O     8     13.237578     13.236991      6.799635   6.0000  15.9994
    115    2 O     8     11.350966      5.656169      4.395846   6.0000  15.9994
    116    2 O     8      5.672112     11.353615      9.204999   6.0000  15.9994
    117    2 O     8     13.237550      3.775984      5.221102   6.0000  15.9994
    118    2 O     8      3.769757     13.236995      0.411205   6.0000  15.9994
    119    2 O     8      5.672164      5.656688      2.813937   6.0000  15.9994
    120    2 O     8     11.351141     11.353722      7.622452   6.0000  15.9994
    121    2 O     8     11.353752     13.236997      0.411202   6.0000  15.9994
    122    2 O     8      5.656433      3.776121      5.220919   6.0000  15.9994
    123    2 O     8      3.775953     11.353609      7.624398   6.0000  15.9994
    124    2 O     8     13.236976      5.655957      2.815413   6.0000  15.9994
    125    2 O     8      5.655961     13.236978      6.799602   6.0000  15.9994
    126    2 O     8     11.353610      3.775951      1.990621   6.0000  15.9994
    127    2 O     8     13.236998     11.353751      9.203818   6.0000  15.9994
    128    2 O     8      3.776116      5.656436      4.394101   6.0000  15.9994
    129    2 O     8      5.656690      5.672168      6.801086   6.0000  15.9994
    130    2 O     8     11.353721     11.351143      1.992569   6.0000  15.9994
    131    2 O     8     13.236996      3.769755      9.203814   6.0000  15.9994
    132    2 O     8      3.775981     13.237552      4.393917   6.0000  15.9994
    133    2 O     8     11.353616      5.672113      0.410022   6.0000  15.9994
    134    2 O     8      5.656162     11.350966      5.219173   6.0000  15.9994
    135    2 O     8      3.775992      3.770032      7.624374   6.0000  15.9994
    136    2 O     8     13.236989     13.237578      2.815385   6.0000  15.9994
    137    2 O     8     13.237585     11.351122      5.219130   6.0000  15.9994
    138    2 O     8      3.770075      5.672092      0.409996   6.0000  15.9994
    139    2 O     8      5.672147     13.237602      2.814137   6.0000  15.9994
    140    2 O     8     11.351098      3.769851      7.622492   6.0000  15.9994
    141    2 O     8      3.769851     11.351101      1.992530   6.0000  15.9994
    142    2 O     8     13.237605      5.672143      6.800885   6.0000  15.9994
    143    2 O     8     11.351125     13.237586      4.395894   6.0000  15.9994
    144    2 O     8      5.672100      3.770075      9.205025   6.0000  15.9994
    145    2 O     8      3.770072      7.566998      1.993765   6.0000  15.9994
    146    2 O     8     13.237549      9.462838      6.797738   6.0000  15.9994
    147    2 O     8      7.566931      5.656659      4.397341   6.0000  15.9994
    148    2 O     8      9.462864     11.353616      9.201949   6.0000  15.9994
    149    2 O     8     13.237606      7.566953      5.217883   6.0000  15.9994
    150    2 O     8      3.770023      9.462827      0.413049   6.0000  15.9994
    151    2 O     8      9.462695      5.656441      2.817112   6.0000  15.9994
    152    2 O     8      7.566982     11.353617      7.621275   6.0000  15.9994
    153    2 O     8     11.353615      9.462868      0.413072   6.0000  15.9994
    154    2 O     8      5.656657      7.566920      5.217679   6.0000  15.9994
    155    2 O     8      5.656443      9.462692      6.797905   6.0000  15.9994
    156    2 O     8     11.353618      7.566987      1.993743   6.0000  15.9994
    157    2 O     8      9.462825      3.770024      9.201972   6.0000  15.9994
    158    2 O     8      7.566952     13.237607      4.397141   6.0000  15.9994
    159    2 O     8      7.566997      3.770074      7.621252   6.0000  15.9994
    160    2 O     8      9.462838     13.237550      2.817287   6.0000  15.9994
    161    2 O     8      7.582840      0.001599      1.992137   6.0000  15.9994
    162    2 O     8      9.468709      1.887585      6.799961   6.0000  15.9994
    163    2 O     8      0.001579      9.468804      4.396284   6.0000  15.9994
    164    2 O     8      1.887706      7.582610      9.203335   6.0000  15.9994
    165    2 O     8      9.468805      0.001580      5.218736   6.0000  15.9994
    166    2 O     8      7.582611      1.887706      0.411684   6.0000  15.9994
    167    2 O     8      1.887581      9.468707      2.815059   6.0000  15.9994
    168    2 O     8      0.001600      7.582839      7.622882   6.0000  15.9994
    169    2 O     8      7.582359      3.776108      1.990369   6.0000  15.9994
    170    2 O     8      9.468805     13.236998      6.800036   6.0000  15.9994
    171    2 O     8     11.351098      9.468717      4.396265   6.0000  15.9994
    172    2 O     8      5.672152      7.582143      9.204839   6.0000  15.9994
    173    2 O     8      9.468544      3.775984      5.220645   6.0000  15.9994
    174    2 O     8      7.582839     13.236980      0.411620   6.0000  15.9994
    175    2 O     8      5.672089      9.468508      2.813770   6.0000  15.9994
    176    2 O     8     11.350980      7.582623      7.622894   6.0000  15.9994
    177    2 O     8      3.776105      7.582357      7.624649   6.0000  15.9994
    178    2 O     8     13.236995      9.468804      2.814984   6.0000  15.9994
    179    2 O     8     13.236979      7.582840      9.203399   6.0000  15.9994
    180    2 O     8      3.775981      9.468541      4.394374   6.0000  15.9994
    181    2 O     8      9.468508      5.672099      6.801243   6.0000  15.9994
    182    2 O     8      7.582624     11.350982      1.992126   6.0000  15.9994
    183    2 O     8      7.582142      5.672160      0.410182   6.0000  15.9994
    184    2 O     8      9.468716     11.351099      5.218757   6.0000  15.9994
    185    2 O     8      7.582148      7.566940      1.993583   6.0000  15.9994
    186    2 O     8      9.468551      9.462834      6.798193   6.0000  15.9994
    187    2 O     8      7.566983      9.468511      4.397499   6.0000  15.9994
    188    2 O     8      9.462712      7.582374      9.201685   6.0000  15.9994
    189    2 O     8      9.468510      7.567004      5.217520   6.0000  15.9994
    190    2 O     8      7.582371      9.462711      0.413338   6.0000  15.9994
    191    2 O     8      9.462828      9.468552      2.816831   6.0000  15.9994
    192    2 O     8      7.566941      7.582150      7.621439   6.0000  15.9994



 SCF PARAMETERS         Density guess:                                   RESTART
                        --------------------------------------------------------
                        max_scf:                                              40
                        max_scf_history:                                       0
                        max_diis:                                              4
                        --------------------------------------------------------
                        eps_scf:                                        1.00E-06
                        eps_scf_history:                                0.00E+00
                        eps_diis:                                       1.00E-01
                        eps_eigval:                                     1.00E-05
                        --------------------------------------------------------
                        level_shift [a.u.]:                             0.000000
                        --------------------------------------------------------
                        Outer loop SCF in use 
                        No variables optimised in outer loop
                        eps_scf                                         1.00E-06
                        max_scf                                               60
                        No outer loop optimization
                        step_size                                       5.00E-01

 PW_GRID| Information for grid number                                          1
 PW_GRID| Grid distributed over                                   128 processors
 PW_GRID| Real space group dimensions                                   128    1
 PW_GRID| the grid is blocked:                                                NO
 PW_GRID| Cutoff [a.u.]                                                    300.0
 PW_GRID| spherical cutoff:                                                   NO
 PW_GRID|   Bounds   1           -112     112                Points:         225
 PW_GRID|   Bounds   2           -112     112                Points:         225
 PW_GRID|   Bounds   3            -72      71                Points:         144
 PW_GRID| Volume element (a.u.^3)  0.2035E-02     Volume (a.u.^3)     14833.7304
 PW_GRID| Grid span                                                    FULLSPACE
 PW_GRID|   Distribution                         Average         Max         Min
 PW_GRID|   G-Vectors                            56953.1       57150       56925
 PW_GRID|   G-Rays                                 253.1         254         253
 PW_GRID|   Real Space Points                    56953.1       64800       32400

 PW_GRID| Information for grid number                                          2
 PW_GRID| Number of the reference grid                                         1
 PW_GRID| Grid distributed over                                   128 processors
 PW_GRID| Real space group dimensions                                   128    1
 PW_GRID| the grid is blocked:                                                NO
 PW_GRID| Cutoff [a.u.]                                                    100.0
 PW_GRID| spherical cutoff:                                                   NO
 PW_GRID|   Bounds   1            -67      67                Points:         135
 PW_GRID|   Bounds   2            -67      67                Points:         135
 PW_GRID|   Bounds   3            -40      40                Points:          81
 PW_GRID| Volume element (a.u.^3)  0.1005E-01     Volume (a.u.^3)     14833.7304
 PW_GRID| Grid span                                                    FULLSPACE
 PW_GRID|   Distribution                         Average         Max         Min
 PW_GRID|   G-Vectors                            11533.0       12150       10800
 PW_GRID|   G-Rays                                  85.4          90          80
 PW_GRID|   Real Space Points                    11533.0       21870       10935

 PW_GRID| Information for grid number                                          3
 PW_GRID| Number of the reference grid                                         1
 PW_GRID| Grid distributed over                                   128 processors
 PW_GRID| Real space group dimensions                                     8   16
 PW_GRID| the grid is blocked:                                                NO
 PW_GRID| Cutoff [a.u.]                                                     33.3
 PW_GRID| spherical cutoff:                                                   NO
 PW_GRID|   Bounds   1            -37      37                Points:          75
 PW_GRID|   Bounds   2            -37      37                Points:          75
 PW_GRID|   Bounds   3            -24      23                Points:          48
 PW_GRID| Volume element (a.u.^3)  0.5494E-01     Volume (a.u.^3)     14833.7304
 PW_GRID| Grid span                                                    FULLSPACE
 PW_GRID|   Distribution                         Average         Max         Min
 PW_GRID|   G-Vectors                             2109.4        2475        1725
 PW_GRID|   G-Rays                                  28.1          33          23
 PW_GRID|   Real Space Points                     2109.4        2400        1728

 PW_GRID| Information for grid number                                          4
 PW_GRID| Number of the reference grid                                         1
 PW_GRID| Grid distributed over                                   128 processors
 PW_GRID| Real space group dimensions                                     8   16
 PW_GRID| the grid is blocked:                                                NO
 PW_GRID| Cutoff [a.u.]                                                     11.1
 PW_GRID| spherical cutoff:                                                   NO
 PW_GRID|   Bounds   1            -22      22                Points:          45
 PW_GRID|   Bounds   2            -22      22                Points:          45
 PW_GRID|   Bounds   3            -13      13                Points:          27
 PW_GRID| Volume element (a.u.^3)  0.2713         Volume (a.u.^3)     14833.7304
 PW_GRID| Grid span                                                    FULLSPACE
 PW_GRID|   Distribution                         Average         Max         Min
 PW_GRID|   G-Vectors                              427.1         585         270
 PW_GRID|   G-Rays                                   9.5          13           6
 PW_GRID|   Real Space Points                      427.1         486         270

 POISSON| Solver                                                        PERIODIC
 POISSON| Periodicity                                                        XYZ

 RS_GRID| Information for grid number                                          1
 RS_GRID|   Bounds   1           -112     112                Points:         225
 RS_GRID|   Bounds   2           -112     112                Points:         225
 RS_GRID|   Bounds   3            -72      71                Points:         144
 RS_GRID| Real space distribution over                                  8 groups
 RS_GRID| Real space distribution along direction                              1
 RS_GRID| Border size                                                         26
 RS_GRID| Real space distribution over                                 16 groups
 RS_GRID| Real space distribution along direction                              2
 RS_GRID| Border size                                                         26
 RS_GRID|   Distribution                         Average         Max         Min
 RS_GRID|   Planes                                  80.1          81          80
 RS_GRID|   Distribution                         Average         Max         Min
 RS_GRID|   Planes                                  66.1          67          66

 RS_GRID| Information for grid number                                          2
 RS_GRID|   Bounds   1            -67      67                Points:         135
 RS_GRID|   Bounds   2            -67      67                Points:         135
 RS_GRID|   Bounds   3            -40      40                Points:          81
 RS_GRID| Real space distribution over                                  8 groups
 RS_GRID| Real space distribution along direction                              1
 RS_GRID| Border size                                                         24
 RS_GRID| Real space distribution over                                 16 groups
 RS_GRID| Real space distribution along direction                              2
 RS_GRID| Border size                                                         24
 RS_GRID|   Distribution                         Average         Max         Min
 RS_GRID|   Planes                                  64.9          65          64
 RS_GRID|   Distribution                         Average         Max         Min
 RS_GRID|   Planes                                  56.4          57          56

 RS_GRID| Information for grid number                                          3
 RS_GRID|   Bounds   1            -37      37                Points:          75
 RS_GRID|   Bounds   2            -37      37                Points:          75
 RS_GRID|   Bounds   3            -24      23                Points:          48
 RS_GRID| Real space fully replicated
 RS_GRID| Group size                                                           1

 RS_GRID| Information for grid number                                          4
 RS_GRID|   Bounds   1            -22      22                Points:          45
 RS_GRID|   Bounds   2            -22      22                Points:          45
 RS_GRID|   Bounds   3            -13      13                Points:          27
 RS_GRID| Real space fully replicated
 RS_GRID| Group size                                                           1

 BFGS| Use rational function optimization for step estimation:                NO
 BFGS| Use model Hessian for initial guess:                                  YES
 BFGS| Restart Hessian:                                                       NO
 BFGS| Trust radius:                                                       0.472

 *******************************************************************************
 ***                     STARTING GEOMETRY OPTIMIZATION                      ***
 ***                                   BFGS                                  ***
 *******************************************************************************

 Spin 1

 Number of electrons:                                                        768
 Number of occupied orbitals:                                                768
 Number of molecular orbitals:                                               768

 Spin 2

 Number of electrons:                                                        767
 Number of occupied orbitals:                                                767
 Number of molecular orbitals:                                               767

 Number of orbital functions:                                               3328
 Number of independent orbital functions:                                   3328

 Extrapolation method: initial_guess

 *** WARNING in qs_initial_guess.F:306 :: User requested to restart the    ***
 *** wavefunction from the file named: tio2-RESTART.wfn. This file does    ***
 *** not exist. Please check the existence of the file or change properly  ***
 *** the value of the keyword WFN_RESTART_FILE_NAME. Calculation continues ***
 *** using ATOMIC GUESS.                                                   ***


 Atomic guess: The first density matrix is obtained in terms of atomic orbitals
               and electronic configurations assigned to each atomic kind

 Guess for atomic kind: Ti

 Electronic structure
    Total number of core electrons                                         10.00
    Total number of valence electrons                                      12.00
    Total number of electrons                                              22.00
    Multiplicity                                                   not specified
    S   [  2.00  2.00] 2.00  2.00
    P   [  6.00] 6.00
    D      2.00


 *******************************************************************************
                  Iteration          Convergence                     Energy [au]
 *******************************************************************************
                          1         2.59099                     -56.573945749309
                          2        0.737518                     -57.461623245624
                          3        0.123244E-01                 -57.676656834797
                          4        0.338536E-02                 -57.676690535970
                          5        0.252157E-03                 -57.676697146183
                          6        0.162704E-05                 -57.676697160103
                          7        0.846593E-06                 -57.676697160104

 Energy components [Hartree]           Total Energy ::          -57.676697160104
                                        Band Energy ::          -13.440549799540
                                     Kinetic Energy ::           25.008468428381
                                   Potential Energy ::          -82.685165588485
                                      Virial (-V/T) ::            3.306286661467
                                        Core Energy ::          -97.155838374470
                                          XC Energy ::           -6.919409696495
                                     Coulomb Energy ::           46.398550910862
                       Total Pseudopotential Energy ::         -122.259340742080
                       Local Pseudopotential Energy ::         -118.928992669456
                    Nonlocal Pseudopotential Energy ::           -3.330348072625
                                        Confinement ::            0.950339392289

 Orbital energies  State     L     Occupation   Energy[a.u.]          Energy[eV]

                       1     0          2.000      -2.312566          -62.928123
                       2     0          2.000      -0.123060           -3.348633

                       1     1          6.000      -1.385567          -37.703193

                       1     2          2.000      -0.127948           -3.481643


 Total Electron Density at R=0:                                         0.004726

 Guess for atomic kind: O

 Electronic structure
    Total number of core electrons                                          2.00
    Total number of valence electrons                                       6.00
    Total number of electrons                                               8.00
    Multiplicity                                                   not specified
    S   [  2.00] 2.00
    P      4.00


 *******************************************************************************
                  Iteration          Convergence                     Energy [au]
 *******************************************************************************
                          1        0.702811                     -15.577904332270
                          2        0.612408                     -15.588447180504
                          3        0.955344E-02                 -15.655871208406
                          4        0.223754E-02                 -15.655885053552
                          5        0.157183E-02                 -15.655885461027
                          6        0.124953E-02                 -15.655885607150
                          7        0.312011E-06                 -15.655885858066

 Energy components [Hartree]           Total Energy ::          -15.655885858066
                                        Band Energy ::           -2.983128125584
                                     Kinetic Energy ::           11.754765134683
                                   Potential Energy ::          -27.410650992749
                                      Virial (-V/T) ::            2.331875684345
                                        Core Energy ::          -26.153522949072
                                          XC Energy ::           -3.157392363346
                                     Coulomb Energy ::           13.655029454351
                       Total Pseudopotential Energy ::          -37.943026860963
                       Local Pseudopotential Energy ::          -39.220419683052
                    Nonlocal Pseudopotential Energy ::            1.277392822089
                                        Confinement ::            0.347387772086

 Orbital energies  State     L     Occupation   Energy[a.u.]          Energy[eV]

                       1     0          2.000      -0.861522          -23.443215

                       1     1          4.000      -0.315021           -8.572154


 Total Electron Density at R=0:                                         0.000093

 Spin 1
 Re-scaling the density matrix to get the right number of electrons for spin 1
                  # Electrons              Trace(P)               Scaling factor
                          768               768.001                        1.000

 Spin 2
 Re-scaling the density matrix to get the right number of electrons for spin 2
                  # Electrons              Trace(P)               Scaling factor
                          767               768.001                        0.999


 SCF WAVEFUNCTION OPTIMIZATION

  ----------------------------------- OT ---------------------------------------
  Minimizer      : DIIS                : direct inversion
                                         in the iterative subspace
                                         using   7 DIIS vectors
                                         safer DIIS on
  Preconditioner : FULL_SINGLE_INVERSE : inversion of 
                                         H + eS - 2*(Sc)(c^T*H*c+const)(Sc)^T
  Precond_solver : DEFAULT
  stepsize       :    0.08000000                  energy_gap     :    0.08000000
  eps_taylor     :   0.10000E-15                  max_taylor     :             4
  ----------------------------------- OT ---------------------------------------

  Step     Update method      Time    Convergence         Total energy    Change
  ------------------------------------------------------------------------------
     1 OT DIIS     0.80E-01    2.0     0.01005733     -5658.2131675445 -5.66E+03
     2 OT DIIS     0.80E-01    1.5     0.00725956     -5693.2539611334 -3.50E+01
     3 OT DIIS     0.80E-01    1.5     0.00458035     -5726.2533589855 -3.30E+01
     4 OT DIIS     0.80E-01    1.5     0.00365006     -5736.4150932359 -1.02E+01
     5 OT DIIS     0.80E-01    1.5     0.00267063     -5747.8711670036 -1.15E+01
     6 OT DIIS     0.80E-01    1.5     0.00220132     -5754.7885884791 -6.92E+00
     7 OT DIIS     0.80E-01    1.6     0.00184227     -5760.9744647608 -6.19E+00
     8 OT DIIS     0.80E-01    1.5     0.00147545     -5766.9273176307 -5.95E+00
     9 OT DIIS     0.80E-01    1.5     0.00127851     -5770.5389743162 -3.61E+00
    10 OT DIIS     0.80E-01    1.5     0.00099683     -5773.8192437846 -3.28E+00
    11 OT DIIS     0.80E-01    1.5     0.00090977     -5774.6357012010 -8.16E-01
    12 OT DIIS     0.80E-01    1.5     0.00073620     -5776.4541597467 -1.82E+00
    13 OT DIIS     0.80E-01    1.5     0.00060548     -5777.7934721668 -1.34E+00
    14 OT DIIS     0.80E-01    1.5     0.00050151     -5778.7283616734 -9.35E-01
    15 OT DIIS     0.80E-01    1.5     0.00045251     -5779.2118883129 -4.84E-01
    16 OT DIIS     0.80E-01    1.5     0.00038186     -5779.7433026621 -5.31E-01
    17 OT DIIS     0.80E-01    1.5     0.00035528     -5779.9584573513 -2.15E-01
    18 OT DIIS     0.80E-01    1.5     0.00030808     -5780.2887265608 -3.30E-01
    19 OT DIIS     0.80E-01    1.5     0.00026984     -5780.5122771592 -2.24E-01
    20 OT DIIS     0.80E-01    1.5     0.00025618     -5780.6224790580 -1.10E-01
    21 OT DIIS     0.80E-01    1.5     0.00023664     -5780.8039470482 -1.81E-01
    22 OT DIIS     0.80E-01    1.5     0.00022005     -5780.9108732572 -1.07E-01
    23 OT DIIS     0.80E-01    1.5     0.00019682     -5781.0800971354 -1.69E-01
    24 OT DIIS     0.80E-01    1.5     0.00017507     -5781.1862801248 -1.06E-01
    25 OT DIIS     0.80E-01    1.5     0.00017675     -5781.2142675350 -2.80E-02
    26 OT DIIS     0.80E-01    1.5     0.00014517     -5781.3290230410 -1.15E-01
    27 OT DIIS     0.80E-01    1.5     0.00014249     -5781.3647653288 -3.57E-02
    28 OT DIIS     0.80E-01    1.5     0.00013445     -5781.4031614340 -3.84E-02
    29 OT SD       0.80E-01    1.5     0.00013121     -5781.4463616244 -4.32E-02
    30 OT DIIS     0.80E-01    1.5     0.00012658     -5781.4532610897 -6.90E-03
    31 OT DIIS     0.80E-01    1.5     0.00012161     -5781.4993063199 -4.60E-02
    32 OT DIIS     0.80E-01    1.5     0.00010779     -5781.5351157989 -3.58E-02
    33 OT DIIS     0.80E-01    1.5     0.00009709     -5781.5712606399 -3.61E-02
    34 OT DIIS     0.80E-01    1.5     0.00008999     -5781.6031036367 -3.18E-02
    35 OT DIIS     0.80E-01    1.5     0.00008533     -5781.6225895735 -1.95E-02
    36 OT DIIS     0.80E-01    1.5     0.00007982     -5781.6383894976 -1.58E-02
    37 OT DIIS     0.80E-01    1.5     0.00007828     -5781.6530896733 -1.47E-02
    38 OT DIIS     0.80E-01    1.5     0.00007632     -5781.6576441655 -4.55E-03
    39 OT DIIS     0.80E-01    1.5     0.00007374     -5781.6707288026 -1.31E-02
    40 OT DIIS     0.80E-01    1.5     0.00006933     -5781.6923889314 -2.17E-02

  Leaving inner SCF loop after reaching    40 steps.


  Electronic density on regular grids:      -1534.9999999999        0.0000000001
  Core density on regular grids:             1535.9999999995       -0.0000000005
  Total charge density on r-space grids:        0.9999999996
  Total charge density g-space grids:           0.9999999996

  Overlap energy of the core charge distribution:               0.00000000000326
  Self energy of the core charge distribution:             -12156.89556134359555
  Core Hamiltonian energy:                                   3262.46958628003404
  Hartree energy:                                            4028.08724971441052
  Exchange-correlation energy:                               -922.64200644426683

  DFT+U energy:                                                 7.28834286206385

  Total energy:                                             -5781.69238893135025

  outer SCF iter =    1 RMS gradient =   0.69E-04 energy =      -5781.6923889314

  ----------------------------------- OT ---------------------------------------
[...]
    11 OT SD       0.80E-01    1.3     0.00000412     -5782.0042606228 -6.93E-06
    12 OT SD       0.80E-01    1.3     0.00000413     -5782.0042675781 -6.96E-06
    13 OT SD       0.80E-01    1.3     0.00000414     -5782.0042745562 -6.98E-06
    14 OT SD       0.80E-01    1.3     0.00000414     -5782.0042815574 -7.00E-06
    15 OT DIIS     0.80E-01    1.4     0.00000415     -5782.0042885817 -7.02E-06
    16 OT DIIS     0.80E-01    1.4     0.00015422     -5781.9966052642  7.68E-03
    17 OT DIIS     0.80E-01    1.4     0.00006980     -5782.0017342565 -5.13E-03
    18 OT DIIS     0.80E-01    1.4     0.00006999     -5782.0022493227 -5.15E-04
    19 OT DIIS     0.80E-01    1.4     0.00006267     -5782.0026931871 -4.44E-04
    20 OT DIIS     0.80E-01    1.4     0.00004452     -5782.0034319435 -7.39E-04
    21 OT SD       0.80E-01    1.4     0.00000756     -5782.0039274207 -4.95E-04
    22 OT SD       0.80E-01    1.3     0.00000464     -5782.0039445374 -1.71E-05
    23 OT SD       0.80E-01    1.3     0.00000414     -5782.0039526751 -8.14E-06
    24 OT SD       0.80E-01    1.3     0.00000405     -5782.0039595808 -6.91E-06
    25 OT SD       0.80E-01    1.3     0.00000403     -5782.0039662596 -6.68E-06
    26 OT SD       0.80E-01    1.3     0.00000402     -5782.0039728859 -6.63E-06
    27 OT SD       0.80E-01    1.3     0.00000402     -5782.0039794982 -6.61E-06
    28 OT SD       0.80E-01    1.3     0.00000402     -5782.0039861085 -6.61E-06
    29 OT SD       0.80E-01    1.3     0.00000402     -5782.0039927225 -6.61E-06
    30 OT SD       0.80E-01    1.3     0.00000403     -5782.0039993435 -6.62E-06
    31 OT SD       0.80E-01    1.3     0.00000403     -5782.0040059736 -6.63E-06
    32 OT SD       0.80E-01    1.3     0.00000403     -5782.0040126146 -6.64E-06
    33 OT SD       0.80E-01    1.4     0.00000404     -5782.0040192677 -6.65E-06
    34 OT SD       0.80E-01    1.3     0.00000404     -5782.0040259340 -6.67E-06
    35 OT SD       0.80E-01    1.3     0.00000405     -5782.0040326144 -6.68E-06
    36 OT SD       0.80E-01    1.3     0.00000405     -5782.0040393095 -6.70E-06
    37 OT SD       0.80E-01    1.3     0.00000406     -5782.0040460201 -6.71E-06
    38 OT SD       0.80E-01    1.3     0.00000406     -5782.0040527467 -6.73E-06
    39 OT SD       0.80E-01    1.3     0.00000407     -5782.0040594898 -6.74E-06
    40 OT SD       0.80E-01    1.3     0.00000407     -5782.0040662499 -6.76E-06

  Leaving inner SCF loop after reaching    40 steps.


  Electronic density on regular grids:      -1535.0000000482       -0.0000000482
  Core density on regular grids:             1535.9999999995       -0.0000000005
  Total charge density on r-space grids:        0.9999999513
  Total charge density g-space grids:           0.9999999513

  Overlap energy of the core charge distribution:               0.00000000000329
  Self energy of the core charge distribution:             -12156.89556134359555
  Core Hamiltonian energy:                                   3261.17713712273189
  Hartree energy:                                            4028.97644137627003
  Exchange-correlation energy:                               -922.54449730880458

  DFT+U energy:                                                 7.28241390346038

  Total energy:                                             -5782.00406624993502

  outer SCF iter =    5 RMS gradient =   0.41E-05 energy =      -5782.0040662499

  ----------------------------------- OT ---------------------------------------
  Minimizer      : DIIS                : direct inversion
                                         in the iterative subspace
                                         using   7 DIIS vectors
                                         safer DIIS on
  Preconditioner : FULL_SINGLE_INVERSE : inversion of 
                                         H + eS - 2*(Sc)(c^T*H*c+const)(Sc)^T
  Precond_solver : DEFAULT
  stepsize       :    0.08000000                  energy_gap     :    0.08000000
  eps_taylor     :   0.10000E-15                  max_taylor     :             4
  ----------------------------------- OT ---------------------------------------

  Step     Update method      Time    Convergence         Total energy    Change
  ------------------------------------------------------------------------------
     1 OT DIIS     0.80E-01    3.4     0.00000408     -5782.0040730274 -6.78E-06
     2 OT SD       0.80E-01    1.4     0.00000408     -5782.0040797949 -6.77E-06
     3 OT SD       0.80E-01    1.3     0.00000409     -5782.0040866144 -6.82E-06
     4 OT SD       0.80E-01    1.3     0.00000409     -5782.0040934525 -6.84E-06
     5 OT SD       0.80E-01    1.3     0.00000410     -5782.0041003094 -6.86E-06
     6 OT SD       0.80E-01    1.4     0.00000411     -5782.0041071854 -6.88E-06
     7 OT SD       0.80E-01    1.3     0.00000411     -5782.0041140809 -6.90E-06
     8 OT SD       0.80E-01    1.3     0.00000412     -5782.0041209957 -6.91E-06
     9 OT SD       0.80E-01    1.3     0.00000412     -5782.0041279305 -6.93E-06
    10 OT SD       0.80E-01    1.3     0.00000413     -5782.0041348853 -6.95E-06
    11 OT SD       0.80E-01    1.3     0.00000414     -5782.0041418605 -6.98E-06
    12 OT SD       0.80E-01    1.3     0.00000414     -5782.0041488561 -7.00E-06
    13 OT SD       0.80E-01    1.3     0.00000415     -5782.0041558724 -7.02E-06
    14 OT SD       0.80E-01    1.3     0.00000415     -5782.0041629096 -7.04E-06
    15 OT SD       0.80E-01    1.3     0.00000416     -5782.0041699678 -7.06E-06
    16 OT SD       0.80E-01    1.3     0.00000417     -5782.0041770473 -7.08E-06
    17 OT SD       0.80E-01    1.3     0.00000417     -5782.0041841481 -7.10E-06
    18 OT SD       0.80E-01    1.3     0.00000418     -5782.0041912705 -7.12E-06
    19 OT SD       0.80E-01    1.4     0.00000419     -5782.0041984146 -7.14E-06
    20 OT SD       0.80E-01    1.3     0.00000419     -5782.0042055806 -7.17E-06
    21 OT SD       0.80E-01    1.3     0.00000420     -5782.0042127686 -7.19E-06
    22 OT SD       0.80E-01    1.3     0.00000421     -5782.0042199787 -7.21E-06
    23 OT SD       0.80E-01    1.3     0.00000421     -5782.0042272110 -7.23E-06
    24 OT SD       0.80E-01    1.4     0.00000422     -5782.0042344658 -7.25E-06
    25 OT SD       0.80E-01    1.4     0.00000422     -5782.0042417431 -7.28E-06
    26 OT SD       0.80E-01    1.3     0.00000423     -5782.0042490430 -7.30E-06
    27 OT SD       0.80E-01    1.3     0.00000424     -5782.0042563657 -7.32E-06
    28 OT SD       0.80E-01    1.3     0.00000424     -5782.0042637112 -7.35E-06
    29 OT SD       0.80E-01    1.3     0.00000425     -5782.0042710797 -7.37E-06
    30 OT SD       0.80E-01    1.3     0.00000426     -5782.0042784713 -7.39E-06
    31 OT SD       0.80E-01    1.3     0.00000426     -5782.0042858861 -7.41E-06
    32 OT SD       0.80E-01    1.5     0.00000427     -5782.0042933241 -7.44E-06
    33 OT SD       0.80E-01    1.3     0.00000428     -5782.0043007855 -7.46E-06
    34 OT DIIS     0.80E-01    1.4     0.00000428     -5782.0043082704 -7.48E-06
    35 OT DIIS     0.80E-01    1.4     0.00021521     -5781.9894947172  1.48E-02
    36 OT DIIS     0.80E-01    1.4     0.00010824     -5782.0000202492 -1.05E-02
    37 OT DIIS     0.80E-01    1.4     0.00000693     -5782.0032819675 -3.26E-03
    38 OT DIIS     0.80E-01    1.4     0.00000674     -5782.0032881661 -6.20E-06
    39 OT DIIS     0.80E-01    1.4     0.00001906     -5782.0031772214  1.11E-04
    40 OT DIIS     0.80E-01    1.4     0.00000960     -5782.0036047930 -4.28E-04

  Leaving inner SCF loop after reaching    40 steps.


  Electronic density on regular grids:      -1534.9999999770        0.0000000230
  Core density on regular grids:             1535.9999999995       -0.0000000005
  Total charge density on r-space grids:        1.0000000224
  Total charge density g-space grids:           1.0000000224

  Overlap energy of the core charge distribution:               0.00000000000329
  Self energy of the core charge distribution:             -12156.89556134359555
  Core Hamiltonian energy:                                   3261.17981652832032
  Hartree energy:                                            4028.97436869382364
  Exchange-correlation energy:                               -922.54475725289831

  DFT+U energy:                                                 7.28252858137533

  Total energy:                                             -5782.00360479297160

  outer SCF iter =    6 RMS gradient =   0.96E-05 energy =      -5782.0036047930

  ----------------------------------- OT ---------------------------------------
  Minimizer      : DIIS                : direct inversion
                                         in the iterative subspace
                                         using   7 DIIS vectors
                                         safer DIIS on
  Preconditioner : FULL_SINGLE_INVERSE : inversion of 
                                         H + eS - 2*(Sc)(c^T*H*c+const)(Sc)^T
  Precond_solver : DEFAULT
  stepsize       :    0.08000000                  energy_gap     :    0.08000000
  eps_taylor     :   0.10000E-15                  max_taylor     :             4
  ----------------------------------- OT ---------------------------------------

  Step     Update method      Time    Convergence         Total energy    Change
  ------------------------------------------------------------------------------
     1 OT DIIS     0.80E-01    3.4     0.00000641     -5782.0037396828 -1.35E-04
     2 OT DIIS     0.80E-01    1.4     0.00000441     -5782.0037526539 -1.30E-05
     3 OT DIIS     0.80E-01    1.4     0.00000405     -5782.0037614586 -8.80E-06
     4 OT DIIS     0.80E-01    1.4     0.00000397     -5782.0037709741 -9.52E-06
     5 OT DIIS     0.80E-01    1.4     0.00000393     -5782.0037845231 -1.35E-05
     6 OT DIIS     0.80E-01    1.3     0.00000387     -5782.0038139038 -2.94E-05
     7 OT DIIS     0.80E-01    1.3     0.00000386     -5782.0038332807 -1.94E-05
     8 OT SD       0.80E-01    1.3     0.00000386     -5782.0038413690 -8.09E-06
     9 OT SD       0.80E-01    1.3     0.00000387     -5782.0038474706 -6.10E-06
    10 OT SD       0.80E-01    1.3     0.00000387     -5782.0038535783 -6.11E-06
    11 OT SD       0.80E-01    1.3     0.00000387     -5782.0038596935 -6.12E-06
    12 OT SD       0.80E-01    1.3     0.00000387     -5782.0038658171 -6.12E-06
    13 OT SD       0.80E-01    1.3     0.00000388     -5782.0038719501 -6.13E-06
    14 OT SD       0.80E-01    1.3     0.00000388     -5782.0038780931 -6.14E-06
    15 OT SD       0.80E-01    1.3     0.00000388     -5782.0038842466 -6.15E-06
    16 OT SD       0.80E-01    1.3     0.00000389     -5782.0038904114 -6.16E-06
    17 OT SD       0.80E-01    1.4     0.00000389     -5782.0038965877 -6.18E-06
    18 OT SD       0.80E-01    1.3     0.00000389     -5782.0039027763 -6.19E-06
    19 OT SD       0.80E-01    1.3     0.00000390     -5782.0039089773 -6.20E-06
    20 OT SD       0.80E-01    1.3     0.00000390     -5782.0039151913 -6.21E-06
    21 OT SD       0.80E-01    1.3     0.00000391     -5782.0039214187 -6.23E-06
    22 OT SD       0.80E-01    1.3     0.00000391     -5782.0039276598 -6.24E-06
    23 OT SD       0.80E-01    1.3     0.00000392     -5782.0039339149 -6.26E-06
    24 OT SD       0.80E-01    1.3     0.00000392     -5782.0039401844 -6.27E-06
    25 OT SD       0.80E-01    1.3     0.00000392     -5782.0039464685 -6.28E-06
    26 OT SD       0.80E-01    1.3     0.00000393     -5782.0039527677 -6.30E-06
    27 OT SD       0.80E-01    1.4     0.00000393     -5782.0039590821 -6.31E-06
    28 OT SD       0.80E-01    1.4     0.00000394     -5782.0039654120 -6.33E-06
    29 OT SD       0.80E-01    1.3     0.00000394     -5782.0039717577 -6.35E-06
    30 OT SD       0.80E-01    1.4     0.00000395     -5782.0039781195 -6.36E-06
    31 OT SD       0.80E-01    1.3     0.00000395     -5782.0039844976 -6.38E-06
    32 OT SD       0.80E-01    1.3     0.00000396     -5782.0039908922 -6.39E-06
    33 OT SD       0.80E-01    1.3     0.00000396     -5782.0039973036 -6.41E-06
    34 OT SD       0.80E-01    1.3     0.00000397     -5782.0040037320 -6.43E-06
    35 OT SD       0.80E-01    1.3     0.00000398     -5782.0040101775 -6.45E-06
    36 OT SD       0.80E-01    1.3     0.00000398     -5782.0040166405 -6.46E-06
    37 OT SD       0.80E-01    1.3     0.00000399     -5782.0040231211 -6.48E-06
    38 OT SD       0.80E-01    1.3     0.00000399     -5782.0040296196 -6.50E-06
    39 OT SD       0.80E-01    1.3     0.00000400     -5782.0040361360 -6.52E-06
    40 OT SD       0.80E-01    1.3     0.00000400     -5782.0040426706 -6.53E-06

  Leaving inner SCF loop after reaching    40 steps.


  Electronic density on regular grids:      -1535.0000000004       -0.0000000004
  Core density on regular grids:             1535.9999999995       -0.0000000005
  Total charge density on r-space grids:        0.9999999991
  Total charge density g-space grids:           0.9999999991

  Overlap energy of the core charge distribution:               0.00000000000329
  Self energy of the core charge distribution:             -12156.89556134359555
  Core Hamiltonian energy:                                   3261.17699995520161
  Hartree energy:                                            4028.97653746470905
  Exchange-correlation energy:                               -922.54445197113648

  DFT+U energy:                                                 7.28243322421636

  Total energy:                                             -5782.00404267060185

  outer SCF iter =    7 RMS gradient =   0.40E-05 energy =      -5782.0040426706

  ----------------------------------- OT ---------------------------------------
  Minimizer      : DIIS                : direct inversion
                                         in the iterative subspace
                                         using   7 DIIS vectors
                                         safer DIIS on
  Preconditioner : FULL_SINGLE_INVERSE : inversion of 
                                         H + eS - 2*(Sc)(c^T*H*c+const)(Sc)^T
  Precond_solver : DEFAULT
  stepsize       :    0.08000000                  energy_gap     :    0.08000000
  eps_taylor     :   0.10000E-15                  max_taylor     :             4
  ----------------------------------- OT ---------------------------------------

  Step     Update method      Time    Convergence         Total energy    Change
  ------------------------------------------------------------------------------
     1 OT DIIS     0.80E-01    3.4     0.00000401     -5782.0040492236 -6.55E-06
     2 OT SD       0.80E-01    1.4     0.00000402     -5782.0040558050 -6.58E-06
     3 OT SD       0.80E-01    1.3     0.00000402     -5782.0040624052 -6.60E-06
     4 OT SD       0.80E-01    1.3     0.00000403     -5782.0040690243 -6.62E-06
     5 OT SD       0.80E-01    1.3     0.00000403     -5782.0040756625 -6.64E-06
     6 OT SD       0.80E-01    1.3     0.00000404     -5782.0040823202 -6.66E-06
     7 OT SD       0.80E-01    1.3     0.00000405     -5782.0040889973 -6.68E-06
     8 OT DIIS     0.80E-01    1.3     0.00000405     -5782.0040956939 -6.70E-06
     9 OT SD       0.80E-01    1.4     0.00000439     -5782.0041057462 -1.01E-05
    10 OT SD       0.80E-01    1.3     0.00000415     -5782.0041132635 -7.52E-06
    11 OT SD       0.80E-01    1.3     0.00000412     -5782.0041202617 -7.00E-06
    12 OT SD       0.80E-01    1.3     0.00000412     -5782.0041272048 -6.94E-06
    13 OT SD       0.80E-01    1.3     0.00000413     -5782.0041341527 -6.95E-06
    14 OT SD       0.80E-01    1.3     0.00000413     -5782.0041411159 -6.96E-06
    15 OT SD       0.80E-01    1.3     0.00000414     -5782.0041480969 -6.98E-06
    16 OT SD       0.80E-01    1.4     0.00000414     -5782.0041550966 -7.00E-06
    17 OT SD       0.80E-01    1.3     0.00000415     -5782.0041621154 -7.02E-06
    18 OT SD       0.80E-01    1.3     0.00000415     -5782.0041691537 -7.04E-06
    19 OT SD       0.80E-01    1.3     0.00000416     -5782.0041762119 -7.06E-06
    20 OT SD       0.80E-01    1.3     0.00000417     -5782.0041832901 -7.08E-06
    21 OT SD       0.80E-01    1.3     0.00000417     -5782.0041903886 -7.10E-06
    22 OT SD       0.80E-01    1.3     0.00000418     -5782.0041975075 -7.12E-06
    23 OT SD       0.80E-01    1.3     0.00000418     -5782.0042046472 -7.14E-06
    24 OT SD       0.80E-01    1.3     0.00000419     -5782.0042118076 -7.16E-06
    25 OT SD       0.80E-01    1.3     0.00000420     -5782.0042189891 -7.18E-06
    26 OT SD       0.80E-01    1.3     0.00000420     -5782.0042261918 -7.20E-06
    27 OT SD       0.80E-01    1.3     0.00000421     -5782.0042334158 -7.22E-06
    28 OT SD       0.80E-01    1.4     0.00000422     -5782.0042406612 -7.25E-06
    29 OT SD       0.80E-01    1.3     0.00000422     -5782.0042479283 -7.27E-06
    30 OT SD       0.80E-01    1.3     0.00000423     -5782.0042552171 -7.29E-06
    31 OT SD       0.80E-01    1.4     0.00000423     -5782.0042625278 -7.31E-06
    32 OT SD       0.80E-01    1.4     0.00000424     -5782.0042698605 -7.33E-06
    33 OT SD       0.80E-01    1.3     0.00000425     -5782.0042772153 -7.35E-06
    34 OT SD       0.80E-01    1.3     0.00000425     -5782.0042845924 -7.38E-06
    35 OT SD       0.80E-01    1.3     0.00000426     -5782.0042919918 -7.40E-06
    36 OT SD       0.80E-01    1.3     0.00000427     -5782.0042994137 -7.42E-06
    37 OT SD       0.80E-01    1.3     0.00000427     -5782.0043068582 -7.44E-06
    38 OT SD       0.80E-01    1.3     0.00000428     -5782.0043143254 -7.47E-06
    39 OT SD       0.80E-01    1.3     0.00000429     -5782.0043218154 -7.49E-06
    40 OT SD       0.80E-01    1.3     0.00000429     -5782.0043293282 -7.51E-06

  Leaving inner SCF loop after reaching    40 steps.


  Electronic density on regular grids:      -1535.0000000011       -0.0000000011
  Core density on regular grids:             1535.9999999995       -0.0000000005
  Total charge density on r-space grids:        0.9999999983
  Total charge density g-space grids:           0.9999999983

  Overlap energy of the core charge distribution:               0.00000000000329
  Self energy of the core charge distribution:             -12156.89556134359555
  Core Hamiltonian energy:                                   3261.17546749479561
  Hartree energy:                                            4028.97757439636416
  Exchange-correlation energy:                               -922.54420766295971

  DFT+U energy:                                                 7.28239778714899

  Total energy:                                             -5782.00432932824333

  outer SCF iter =    8 RMS gradient =   0.43E-05 energy =      -5782.0043293282

  ----------------------------------- OT ---------------------------------------
  Minimizer      : DIIS                : direct inversion
                                         in the iterative subspace
                                         using   7 DIIS vectors
                                         safer DIIS on
  Preconditioner : FULL_SINGLE_INVERSE : inversion of 
                                         H + eS - 2*(Sc)(c^T*H*c+const)(Sc)^T
  Precond_solver : DEFAULT
  stepsize       :    0.08000000                  energy_gap     :    0.08000000
  eps_taylor     :   0.10000E-15                  max_taylor     :             4
  ----------------------------------- OT ---------------------------------------

  Step     Update method      Time    Convergence         Total energy    Change
  ------------------------------------------------------------------------------
     1 OT DIIS     0.80E-01    3.5     0.00000430     -5782.0043368641 -7.54E-06
     2 OT SD       0.80E-01    1.3     0.00000430     -5782.0043444118 -7.55E-06
     3 OT SD       0.80E-01    1.3     0.00000431     -5782.0043519832 -7.57E-06
