     192
 i =        6, E =     -5782.0086962832
Ti         0.0006737111        0.0024251574       -0.0004543488
Ti         1.8887506391        1.8881205511        4.8078309373
Ti         0.0014991689        1.8894997369        2.4031716881
Ti         1.8889411869        0.0016677352        7.2116280090
Ti         0.0015547695        3.7754340803        0.0025844225
Ti         1.8885942246       13.2381161217        4.8060956316
Ti        11.3495426976        1.8877978685        2.4049864231
Ti         5.6691359445        0.0005255870        7.2160079734
Ti         1.8882735309        3.7760047065        7.2088838521
Ti         0.0006921749       13.2367039204        2.4052426102
Ti         5.6696088522        1.8892956210        4.8036813246
Ti        11.3502878500       -0.0001086490       -0.0018891047
Ti         3.7772008303        0.0000017564       -0.0033060654
Ti        13.2374477925        1.8891876853        4.8095305432
Ti        13.2371481681        0.0005352640        7.2101188208
Ti         3.7761118028        1.8878884627        2.4063494119
Ti         1.8886473114        5.6700823848        4.8119116914
Ti         0.0015274600       11.3485376540        0.0012930681
Ti         0.0007371175        5.6689964007        2.3992038799
Ti         1.8882836785       11.3494704339        7.2102407018
Ti         0.0006559285        7.5701696664        0.0053005842
Ti         1.8887961567        9.4617401701        4.8090254258
Ti         7.5696205737        1.8895336470        2.4087857620
Ti         9.4626313713        0.0016552064        7.2130286759
Ti         1.8890183148        7.5698752854        7.2060418584
Ti         0.0014879901        9.4632184567        2.4019621222
Ti         9.4625199542        1.8881918169        4.8066051774
Ti         7.5689953090        0.0023111780       -0.0060842567
Ti         3.7763225783        3.7776778597       -0.0005238499
Ti        13.2376396388       13.2369760221        4.8078263783
Ti        11.3502932768        5.6705465111        2.4005614729
Ti         5.6698191000       11.3504290568        7.2142797363
Ti        13.2379061880        3.7771221990        7.2071097613
Ti         3.7768551565       13.2382766171        2.4078141598
Ti         5.6697727851        5.6691334828        4.8077886841
Ti        11.3494443795       11.3510617895       -0.0003485593
Ti        11.3503697802       13.2383809776        2.4064687426
Ti         5.6698375286        3.7770782075        7.2130012997
Ti         3.7763145336       11.3510347888       -0.0018060545
Ti        13.2376105586        5.6690334551        4.8136049898
Ti         5.6698037462       13.2369783436        4.8020363173
Ti        11.3494622941        3.7776650164        0.0009169412
Ti        13.2378970478       11.3505687409        7.2084034613
Ti         3.7768936221        5.6704946382        2.4019010763
Ti         3.7771469623        7.5679884760        0.0024015243
Ti        13.2374272618        9.4628052615        4.8107272630
Ti         7.5689007017        5.6690257918        2.4047997638
Ti         9.4619575451       11.3494239546        7.2115877964
Ti        13.2371980267        7.5688604390        7.2045776272
Ti         3.7761448134        9.4617047915        2.4051562327
Ti         9.4622258886        5.6700625005        4.8107313913
Ti         7.5697651620       11.3486844850       -0.0043737965
Ti        11.3495861237        9.4616857920        2.4037458816
Ti         5.6692267745        7.5688712583        7.2103863244
Ti         5.6696279904        9.4627249978        4.8048803583
Ti        11.3502745717        7.5679713721        0.0037856975
Ti         9.4619486831        3.7760071671        7.2101916141
Ti         7.5688824498       13.2367559175        2.4107477208
Ti         7.5697040901        3.7755345364       -0.0030617076
Ti         9.4623141137       13.2380997830        4.8049048726
Ti         7.5689536304        7.5701565497       -0.0003440595
Ti         9.4624307472        9.4617760024        4.8078246048
Ti         7.5695769009        9.4630905553        2.4076226850
Ti         9.4625845895        7.5698554484        7.2073747530
O         0.0012060710        0.0012574782        1.9924605670
O         1.8849000330        1.8877589326        6.8007180176
O         0.0014720276        1.8843748470        4.3969965017
O         1.8875006268        0.0010993747        9.2055711964
O         1.8835838885        0.0014765808        5.2180466114
O        -0.0002960717        1.8876464571        0.4111104379
O         1.8877596483        1.8835472588        2.8139580794
O         0.0017275758       -0.0003618612        7.6229871005
O         0.0009562600        3.7761743121        1.9893490037
O         1.8848970407       13.2368705678        6.8014822782
O        11.3511600068        1.8849972269        4.3965982033
O         5.6723381071        0.0015984712        9.2056929156
O         1.8840578290        3.7760687997        5.2195017798
O         0.0000073556       13.2372088932        0.4092792894
O         5.6720086372        1.8834633888        2.8127401883
O        11.3510470603        0.0005335851        7.6233254758
O         3.7759164718        0.0005746326        7.6255414885
O        13.2368422565        1.8831457725        2.8133944998
O        13.2369518642        0.0016270172        9.2049919615
O         3.7761313952        1.8851136338        4.3945122110
O         1.8850345014        5.6720778171        6.8021793030
O         0.0009596944       11.3511925826        1.9914001455
O         0.0001670030        5.6723348517        0.4087552897
O         1.8839255682       11.3511207619        5.2173019389
O         0.0011770001        7.5666950955        1.9933854769
O         1.8850373301        9.4628804383        6.7986236219
O         7.5668334435        1.8845131600        4.3978154053
O         9.4625419781        0.0012460468        9.2033457011
O         1.8838293683        7.5667054254        5.2172337931
O        -0.0001773884        9.4624551690        0.4131454873
O         9.4628012106        1.8837852881        2.8160220533
O         7.5669452223       -0.0002301167        7.6220223390
O         3.7694560241        0.0017357096        1.9919708999
O        13.2385859046        1.8876034891        6.8012322119
O         0.0017925102        5.6565639957        4.3965039292
O         1.8877765626       11.3554473197        9.2051007145
O        13.2375114358        0.0017680534        5.2174787628
O         3.7685405759        1.8879741335        0.4092485061
O         1.8876996004        5.6549774791        2.8138312429
O         0.0016825429       11.3542893684        7.6231706212
O        11.3538438330        1.8879566725        0.4094563380
O         5.6554649746        0.0018083618        5.2174919091
O         5.6567575053        1.8876865436        6.8011410483
O        11.3547183155        0.0017471592        1.9917611168
O         1.8878696871        3.7701448323        9.2051819061
O         0.0017785404       13.2386222922        4.3966313439
O         0.0016721779        3.7690314813        7.6228119029
O         1.8875610811       13.2368522014        2.8138070827
O         3.7700828341        3.7756626314        1.9907805297
O        13.2386274603       13.2369865272        6.8006734272
O        11.3507367431        5.6562279732        4.3967239285
O         5.6719843040       11.3547420393        9.2064761689
O        13.2371867585        3.7758190285        5.2205886216
O         3.7681163804       13.2368250837        0.4105027135
O         5.6721747825        5.6559181248        2.8130339398
O        11.3511392973       11.3534306822        7.6228565523
O        11.3535667748       13.2367757760        0.4107879036
O         5.6557341168        3.7759844807        5.2203451993
O         3.7759525738       11.3533005435        7.6250348970
O        13.2369730261        5.6551233867        2.8140317010
O         5.6564968290       13.2369435770        6.8006347418
O        11.3547475093        3.7756004840        1.9905895201
O        13.2366794943       11.3551224609        9.2058778866
O         3.7759879333        5.6565017625        4.3947941961
O         5.6570951924        5.6722531182        6.8016965961
O        11.3549078631       11.3507363607        1.9926713398
O        13.2366572844        3.7696579332        9.2059877305
O         3.7759008885       13.2379591351        4.3946414351
O        11.3534313991        5.6719219540        0.4101636435
O         5.6553941749       11.3506844479        5.2183110736
O         3.7760037768        3.7686431023        7.6245768774
O        13.2370085945       13.2372294606        2.8140452971
O        13.2372353858       11.3507746174        5.2183222031
O         3.7686553586        5.6719238293        0.4098629340
O         5.6721976981       13.2372764873        2.8132897476
O        11.3511171776        3.7683420535        7.6225023275
O         3.7698215029       11.3507175902        1.9927535606
O        13.2384501392        5.6722969119        6.8014608963
O        11.3508518642       13.2380408745        4.3968089609
O         5.6719315576        3.7699508530        9.2066140364
O         3.7698098985        7.5672113281        1.9928645576
O        13.2385487748        9.4627474623        6.7990815438
O         7.5670688880        5.6571655794        4.3975881916
O         9.4628104698       11.3552284301        9.2029166414
O        13.2375236965        7.5669955425        5.2166830548
O         3.7688175006        9.4629640762        0.4111874665
O         9.4625788196        5.6553005432        2.8156888362
O         7.5668902986       11.3541543330        7.6222431368
O        11.3536995601        9.4630262999        0.4114806871
O         5.6562173657        7.5669999113        5.2164810195
O         5.6570416840        9.4626338848        6.7992386284
O        11.3544683149        7.5671921285        1.9926524894
O         9.4628189782        3.7703716424        9.2030955571
O         7.5670681710       13.2385155889        4.3974438180
O         7.5669241872        3.7694979795        7.6218582250
O         9.4626544253       13.2368040725        2.8159049561
O         7.5835256105        0.0013173089        1.9926232907
O         9.4700560206        1.8877729134        6.8009497021
O         0.0014964442        9.4696884751        4.3973048415
O         1.8876052313        7.5834144086        9.2054853801
O         9.4688360858        0.0014799564        5.2179409830
O         7.5819385561        1.8877116103        0.4111337359
O         1.8877904401        9.4687584787        2.8138225960
O         0.0017522749        7.5820808753        7.6228985568
O         7.5827668351        3.7762741584        1.9897639809
O         9.4702674898       13.2368513379        6.8017282162
O        11.3510644028        9.4701369822        4.3968828335
O         5.6722470127        7.5833200093        9.2058640871
O         9.4687447105        3.7760975898        5.2193438011
O         7.5822838572       13.2371822515        0.4094641905
O         5.6719410788        9.4681721977        2.8125732946
O        11.3509379884        7.5827271565        7.6232063085
O         3.7760517190        7.5823817122        7.6251927433
O        13.2368168279        9.4684463400        2.8132986670
O        13.2369090992        7.5840878161        9.2049403719
O         3.7761401319        9.4698448926        4.3948646481
O         9.4697516150        5.6720494700        6.8024570643
O         7.5831469915       11.3510537957        1.9916163871
O         7.5817324081        5.6723246877        0.4086365515
O         9.4690524254       11.3511024677        5.2172323725
O         7.5828028692        7.5667040608        1.9937065216
O         9.4698104018        9.4628367197        6.7989213545
O         7.5668475909        9.4692418984        4.3981126777
O         9.4624771658        7.5831725401        9.2035373461
O         9.4685318886        7.5667245223        5.2170655439
O         7.5816846505        9.4624144852        0.4129592443
O         9.4628052848        9.4685790359        2.8157997896
O         7.5669770026        7.5814582548        7.6217709517
     192
 i =        7, E =     -5781.8031826209
Ti        -0.0027727112        0.0623136078       -0.0151962581
Ti         1.9004169248        1.8793296222        4.8184031773
Ti         0.0258543075        1.9268795489        2.4561880582
Ti         1.9067706592        0.0312180976        7.1509112455
Ti         0.0293551637        3.7576580465       -0.0138550452
Ti         1.8952408922       13.2466580817        4.8169983419
Ti        11.3242971118        1.8682343375        2.4644277771
Ti         5.6612508346       -0.0087328082        7.1699197662
Ti         1.8834048314        3.7759990516        7.1615795340
Ti        -0.0018464827       13.2000650147        2.4703058812
Ti         5.6763225746        1.9155269295        4.8105997329
Ti        11.3484612551       -0.0306849956       -0.0102338405
Ti         3.8213193652       -0.0279821705       -0.0107931793
Ti        13.2241773377        1.9153976388        4.8186276711
Ti        13.2144511631       -0.0074610825        7.1562979341
Ti         3.7796028070        1.8697995346        2.4610936688
Ti         1.8936669151        5.6920099708        4.8240179452
Ti         0.0295462551       11.2836794657       -0.0095671614
Ti        -0.0015026731        5.6560578946        2.4518301657
Ti         1.8847872899       11.3216344282        7.1577767146
Ti        -0.0046478456        7.5865257422       -0.0065542892
Ti         1.9001960014        9.4243022964        4.8167246505
Ti         7.5673164667        1.9242198533        2.4572989864
Ti         9.4552953609        0.0303280048        7.1576889044
Ti         1.9062441285        7.5754596058        7.1507872835
Ti         0.0249826045        9.4749765217        2.4560839049
Ti         9.4500268108        1.8800713946        4.8191542038
Ti         7.5433922264        0.0558596877       -0.0195747937
Ti         3.7864945282        3.8364643408       -0.0177331327
Ti        13.2301471217       13.2081209049        4.8179319295
Ti        11.3531347130        5.7083935494        2.4441992546
Ti         5.6832162947       11.3574243232        7.1638897054
Ti        13.2405413000        3.8138121904        7.1568601497
Ti         3.8051239953       13.2535255867        2.4543049593
Ti         5.6805188720        5.6595456805        4.8171834732
Ti        11.3176504405       11.3770663732       -0.0115042372
Ti        11.3521939249       13.2562786677        2.4569933317
Ti         5.6833979012        3.8082862117        7.1679976714
Ti         3.7883458699       11.3773705589       -0.0124976406
Ti        13.2305890775        5.6576299004        4.8251370851
Ti         5.6826947136       13.2097404823        4.8105887589
Ti        11.3204044068        3.8382101269       -0.0173692522
Ti        13.2393688279       11.3587700257        7.1523041876
Ti         3.8023479715        5.7058520104        2.4424074320
Ti         3.8141901999        7.5086947944       -0.0052448479
Ti        13.2240900009        9.4604064720        4.8177119031
Ti         7.5442442902        5.6556204554        2.4542111205
Ti         9.4326009551       11.3214932709        7.1623703213
Ti        13.2173028554        7.5411337115        7.1573753201
Ti         3.7795595754        9.4258114176        2.4623309023
Ti         9.4452890694        5.6903849207        4.8246209714
Ti         7.5714927113       11.2931982768       -0.0146755618
Ti        11.3272426383        9.4238789861        2.4638652351
Ti         5.6629702164        7.5431770443        7.1670438861
Ti         5.6758425040        9.4621334526        4.8105818352
Ti        11.3521416779        7.5067612683       -0.0050136417
Ti         9.4338532539        3.7746059008        7.1643287302
Ti         7.5421127470       13.2023946154        2.4685592412
Ti         7.5708439646        3.7559377763       -0.0170869478
Ti         9.4439088078       13.2462571273        4.8180485913
Ti         7.5434780149        7.5877907680       -0.0116253463
Ti         9.4482510312        9.4266622629        4.8182499532
Ti         7.5669077449        9.4745548635        2.4583598355
Ti         9.4577510367        7.5757250742        7.1556375978
O         0.0101807323       -0.0109015456        1.9919252035
O         1.8854890036        1.8936290137        6.8320775029
O        -0.0017730793        1.8723154827        4.4225397731
O         1.8851216441        0.0086234035        9.2959196250
O         1.8456641563       -0.0013569612        5.1940617065
O        -0.0381667344        1.8916415765        0.3768392834
O         1.8943952268        1.8398484923        2.7703118969
O         0.0065027903       -0.0400705979        7.6391981827
O         0.0015307830        3.7802357647        1.9534181666
O         1.8870333602       13.2322935095        6.8554346667
O        11.3517406434        1.8886182424        4.4081920452
O         5.6783113141        0.0239603041        9.2528118594
O         1.8541168326        3.7788506313        5.1798210786
O        -0.0308634320       13.2441183661        0.3122722001
O         5.6679513644        1.8348188089        2.7713300475
O        11.3502396417       -0.0127588875        7.6488330204
O         3.7719537359       -0.0124624734        7.6587490717
O        13.2313561817        1.8289438050        2.7536437196
O        13.2346081190        0.0226971058        9.2735278292
O         3.7805907374        1.8889425282        4.4013109438
O         1.8876945855        5.6706110280        6.8390578213
O         0.0025604848       11.3547941824        1.9572005135
O        -0.0246392123        5.6793152334        0.3397623218
O         1.8534650944       11.3510413171        5.1693376380
O         0.0106272919        7.5568653139        1.9843913980
O         1.8867448449        9.4634182905        6.8208977732
O         7.5611512944        1.8724440796        4.4112933757
O         9.4520946345        0.0126097951        9.2801807128
O         1.8489344521        7.5574918051        5.2057168646
O        -0.0357326449        9.4500347062        0.3861688585
O         9.4617488214        1.8439436231        2.7806494588
O         7.5678581386       -0.0354111082        7.6453595639
O         3.7599170926        0.0065823497        1.9637974485
O        13.2712108256        1.8879747988        6.8639369539
O         0.0077827857        5.6771359026        4.4204010560
O         1.8948708246       11.4125239653        9.2627290046
O        13.2344570862        0.0075338070        5.1597195008
O         3.7221285244        1.9005361921        0.3259006562
O         1.8860360263        5.6129313901        2.7507430815
O         0.0050285615       11.3702696772        7.6585529761
O        11.3589005042        1.9015934743        0.3337551469
O         5.6385417511        0.0084200020        5.1601001888
O         5.6755549605        1.8857914234        6.8614681355
O        11.3855193952        0.0069829250        1.9547598600
O         1.8965506461        3.7766856266        9.2655917164
O         0.0076129925       13.2704767196        4.4248373889
O         0.0046211894        3.7442219375        7.6443763466
O         1.8866324225       13.2138599591        2.7506061167
O         3.7718080852        3.7618351286        1.9864012454
O        13.2717491860       13.2361489365        6.8446469109
O        11.3439670593        5.6602599851        4.4292312765
O         5.6668611875       11.3950903366        9.2677374226
O        13.2269024471        3.7697178111        5.2002619239
O         3.7135845942       13.2313834783        0.3732233659
O         5.6726638502        5.6286735430        2.7749168487
O        11.3530823123       11.3449947678        7.6491067886
O        11.3508794486       13.2296891795        0.3827170349
O         5.6336953518        3.7705013345        5.1985497257
O         3.7746673160       11.3441624894        7.6580900441
O        13.2368638240        5.6252544985        2.7591341795
O         5.6740284256       13.2351709035        6.8432297860
O        11.3911050274        3.7607490096        1.9792417160
O        13.2257017443       11.4035790094        9.2896722023
O         3.7705396823        5.6611817450        4.4210780196
O         5.6708396110        5.6745826665        6.8295750882
O        11.3928069311       11.3378601695        1.9847198890
O        13.2249781393        3.7655477378        9.2920388747
O         3.7720705748       13.2530451323        4.4227110540
O        11.3497449179        5.6661299539        0.4030501005
O         5.6308417406       11.3426434581        5.1871005733
O         3.7752664739        3.7239799843        7.6414183559
O        13.2378302140       13.2249222729        2.7594651921
O        13.2275129240       11.3404462059        5.1881977762
O         3.7216123822        5.6669499207        0.3939324611
O         5.6742681041       13.2252181684        2.7759023015
O        11.3535263195        3.7198958583        7.6335890124
O         3.7687101092       11.3385766893        1.9905690253
O        13.2654318729        5.6769674244        6.8289750737
O        11.3425010320       13.2546698462        4.4314583110
O         5.6652333385        3.7664772010        9.2709837037
O         3.7613931010        7.5747540072        1.9560303686
O        13.2712023416        9.4603490519        6.8516162177
O         7.5713226836        5.6739692115        4.4085829419
O         9.4598680025       11.4084322548        9.2479694877
O        13.2335911433        7.5685864799        5.1743441851
O         3.7262190636        9.4681350148        0.3337168865
O         9.4596753258        5.6166783025        2.7601683470
O         7.5645679060       11.3703812365        7.6639219128
O        11.3568793502        9.4687414514        0.3424827167
O         5.6408014917        7.5699295294        5.1749677238
O         5.6780647835        9.4613369596        6.8506776903
O        11.3820454171        7.5746380925        1.9480791129
O         9.4619714661        3.7795754860        9.2526776379
O         7.5704869814       13.2663442235        4.4109704878
O         7.5650246129        3.7493210566        7.6502701418
O         9.4572977863       13.2132216512        2.7612015253
O         7.6057379647       -0.0089268344        1.9997035210
O         9.5141114876        1.8927775743        6.8419834317
O        -0.0009672433        9.5005182463        4.4339040618
O         1.8837482048        7.6136181926        9.2911425990
O         9.4713034859       -0.0014286357        5.1897202975
O         7.5603798448        1.8885789353        0.3794389125
O         1.8942567257        9.4698674494        2.7639628398
O         0.0071693933        7.5558932258        7.6340958978
O         7.5954005956        3.7796397047        1.9626193477
O         9.5191707953       13.2317227106        6.8649892920
O        11.3502301796        9.5150677372        4.4199798252
O         5.6743760061        7.6229438952        9.2508340544
O         9.4742122961        3.7786545236        5.1742745662
O         7.5632581504       13.2434812661        0.3218794447
O         5.6666489372        9.4573019260        2.7657621101
O        11.3509423969        7.5840314023        7.6422398498
O         3.7726387673        7.5808945328        7.6515111734
O        13.2305505319        9.4577751298        2.7497104837
O        13.2336214611        7.6264967861        9.2693924708
O         3.7798770478        9.5108056824        4.4132545821
O         9.5111883730        5.6698691994        6.8486747479
O         7.5997372359       11.3545788748        1.9672271025
O         7.5665042024        5.6782166692        0.3439426374
O         9.4792838956       11.3517413861        5.1649407161
O         7.6040016284        7.5577898951        1.9901823567
O         9.5107142988        9.4631336012        6.8312020142
O         7.5619011875        9.4947999027        4.4214423642
O         9.4547514486        7.6125903733        9.2789107271
O         9.4701028178        7.5574050644        5.1998304080
O         7.5592660053        9.4532788673        0.3874251790
O         9.4630925480        9.4682572997        2.7728320680
O         7.5695156937        7.5575598611        7.6416563714
     192
 i =        8, E =     -5782.0090890675
Ti         0.0003633743        0.0071511447       -0.0013240501
Ti         1.8889326235        1.8876577598        4.8080219229
Ti         0.0023018830        1.8907873244        2.4053480283
Ti         1.8894670042        0.0026967829        7.2092974035
Ti         0.0026120990        3.7751715423        0.0019557650
Ti         1.8888049405       13.2385298355        4.8066037424
Ti        11.3489483805        1.8868154872        2.4070318525
Ti         5.6687756216        0.0001001105        7.2144656058
Ti         1.8878364082        3.7757374937        7.2071015023
Ti         0.0005802605       13.2352752926        2.4090015253
Ti         5.6697131659        1.8899849810        4.8036919607
Ti        11.3500007293       -0.0015144708       -0.0021323284
Ti         3.7791918658       -0.0012800932       -0.0035964033
Ti        13.2369265737        1.8900162697        4.8097077564
Ti        13.2361071613        0.0002467322        7.2078285206
Ti         3.7760343596        1.8869678026        2.4085020971
Ti         1.8884657633        5.6706615308        4.8124085992
Ti         0.0029439735       11.3437168658        0.0004626581
Ti         0.0006456164        5.6682787791        2.4006993223
Ti         1.8879443774       11.3486192512        7.2082110999
Ti         0.0004097145        7.5702344640        0.0050416140
Ti         1.8889861895        9.4604704608        4.8093212230
Ti         7.5696529427        1.8907444658        2.4108294639
Ti         9.4624994072        0.0025745773        7.2114350222
Ti         1.8894427638        7.5699834400        7.2040302240
Ti         0.0022823579        9.4639219767        2.4039635992
Ti         9.4621796091        1.8876221794        4.8067764543
Ti         7.5681115101        0.0043586330       -0.0066853028
Ti         3.7763573560        3.7797122196       -0.0011014577
Ti        13.2371018820       13.2359570455        4.8080956406
Ti        11.3507186660        5.6720193270        2.4018400106
Ti         5.6702262411       11.3509340165        7.2130846229
Ti        13.2379446898        3.7781343460        7.2053947922
Ti         3.7779058544       13.2390110514        2.4095757243
Ti         5.6700181544        5.6686749625        4.8079840851
Ti        11.3478437007       11.3525043082       -0.0004533609
Ti        11.3504048935       13.2392653365        2.4082871069
Ti         5.6702467562        3.7778531687        7.2117919752
Ti         3.7768473393       11.3523963380       -0.0021205055
Ti        13.2373491789        5.6685368406        4.8139228394
Ti         5.6702479555       13.2359642295        4.8021336730
Ti        11.3486589972        3.7797916642        0.0004407584
Ti        13.2378421330       11.3510286333        7.2063210911
Ti         3.7775390295        5.6718121805        2.4032945400
Ti         3.7783313639        7.5657312234        0.0021227002
Ti        13.2368705830        9.4628516128        4.8110766593
Ti         7.5682340783        5.6682611433        2.4062911529
Ti         9.4609920332       11.3487108912        7.2099688683
Ti        13.2363508362        7.5678910882        7.2027774430
Ti         3.7760929575        9.4604577746        2.4070069032
Ti         9.4618085229        5.6705832923        4.8111887585
Ti         7.5698192950       11.3467012039       -0.0049810164
Ti        11.3490908854        9.4603574210        2.4054809745
Ti         5.6689301303        7.5680727588        7.2089238396
Ti         5.6696706874        9.4629730636        4.8050574769
Ti        11.3506779958        7.5655420740        0.0035714836
Ti         9.4609900591        3.7755878150        7.2086101058
Ti         7.5681234234       13.2354417396        2.4128778035
Ti         7.5698258616        3.7745187393       -0.0036145368
Ti         9.4617782150       13.2385026218        4.8052826265
Ti         7.5680724942        7.5710243591       -0.0005942471
Ti         9.4620480950        9.4606769299        4.8080557673
Ti         7.5695975890        9.4636598026        2.4093919368
Ti         9.4625490331        7.5700778980        7.2057798306
O         0.0017122457        0.0001134546        1.9920678053
O         1.8852512306        1.8874862875        6.8014434127
O         0.0013580335        1.8849740220        4.3972882450
O         1.8866972491        0.0006864693        9.2112925429
O         1.8821532157        0.0014941638        5.2181200913
O        -0.0019460942        1.8886834745        0.4086944987
O         1.8876068176        1.8810884434        2.8120414583
O         0.0019863921       -0.0022143492        7.6237205829
O         0.0014292827        3.7757826096        1.9885253793
O         1.8855277812       13.2366530771        6.8031349332
O        11.3513563663        1.8852689805        4.3963480229
O         5.6724203342        0.0026175190        9.2088893509
O         1.8828336718        3.7758731343        5.2186802826
O        -0.0018987935       13.2375038577        0.4025258230
O         5.6718503803        1.8811606495        2.8110487507
O        11.3515087771       -0.0001555254        7.6240632877
O         3.7755329298       -0.0000960525        7.6266018526
O        13.2368025846        1.8804912094        2.8111748974
O        13.2368821455        0.0013207394        9.2093385699
O         3.7759256334        1.8854375684        4.3943403062
O         1.8857651921        5.6718410034        6.8031678169
O         0.0013813339       11.3519643324        1.9897957318