     192
 i =        6, E =     -5782.0086962832
Ti         0.0003707161        0.0002162058        0.0003478619
Ti        -0.0001816159        0.0002732548       -0.0002704512
Ti        -0.0000896544       -0.0003316640        0.0037718391
Ti        -0.0002167956       -0.0002024134       -0.0035460502
Ti         0.0002541016        0.0005460767        0.0001134549
Ti         0.0000962174       -0.0004614800       -0.0000532754
Ti         0.0002470611        0.0005490239        0.0033101190
Ti         0.0002463116        0.0004804424       -0.0032527884
Ti         0.0001789492        0.0004183162       -0.0033515731
Ti         0.0003896535        0.0003824438        0.0036642711
Ti         0.0001330475       -0.0003555281       -0.0003032940
Ti        -0.0003065399        0.0003409000        0.0002347278
Ti         0.0004348580        0.0003208974        0.0001801383
Ti         0.0000236625       -0.0003534548       -0.0002667670
Ti         0.0000280724        0.0005144558       -0.0039246503
Ti         0.0002877196        0.0004745498        0.0031283140
Ti         0.0000555345       -0.0002719732        0.0000021824
Ti         0.0002907241       -0.0002904879        0.0000111420
Ti         0.0003523542        0.0004912710        0.0029339408
Ti         0.0001933110        0.0003169721       -0.0036487314
Ti         0.0003222801       -0.0004864376        0.0003151701
Ti        -0.0001969772        0.0002987232       -0.0001022830
Ti        -0.0002829382       -0.0003640349        0.0032013938
Ti        -0.0003241604       -0.0001742627       -0.0032469679
Ti        -0.0002322670       -0.0004290215       -0.0029553288
Ti        -0.0000662658       -0.0005126733        0.0034905866
Ti        -0.0001701279        0.0002399973       -0.0003945149
Ti        -0.0002398649        0.0001089157        0.0003365423
Ti         0.0003862281        0.0002146857        0.0003227125
Ti        -0.0002584745        0.0001939850       -0.0002519705
Ti        -0.0001804272       -0.0003823795        0.0029268871
Ti        -0.0001668284       -0.0003158964       -0.0027159157
Ti        -0.0003715560       -0.0002544141       -0.0030759609
Ti        -0.0001288374       -0.0004938230        0.0033737334
Ti        -0.0001326202        0.0002919132       -0.0002302842
Ti        -0.0002048267       -0.0004183027        0.0003516484
Ti        -0.0002334057       -0.0005371472        0.0035734968
Ti        -0.0001824212       -0.0002568168       -0.0025953906
Ti         0.0005019645       -0.0003970789        0.0002487609
Ti        -0.0002297172        0.0003387817       -0.0002174332
Ti        -0.0001353041        0.0002019335       -0.0003004788
Ti        -0.0001267298        0.0002940996        0.0004305745
Ti        -0.0003686856       -0.0003519342       -0.0033605048
Ti        -0.0001561580       -0.0003646037        0.0028311505
Ti         0.0002801838       -0.0001306064        0.0001489312
Ti         0.0000236937       -0.0003444091       -0.0001403049
Ti         0.0001684469        0.0004390175        0.0025428912
Ti         0.0000792143        0.0003210305       -0.0033279566
Ti         0.0000515910        0.0002092154       -0.0032561073
Ti         0.0002597594        0.0003701243        0.0028346509
Ti         0.0000900852       -0.0002667613       -0.0001581549
Ti        -0.0003284632       -0.0001219348        0.0000146234
Ti         0.0002371299        0.0003918195        0.0030257479
Ti         0.0001909555        0.0002022546       -0.0027854558
Ti         0.0000958227       -0.0003061142       -0.0001676062
Ti        -0.0001467324       -0.0002221103        0.0002405460
Ti         0.0000958401        0.0003694293       -0.0030804275
Ti         0.0001505793        0.0003623923        0.0029996236
Ti        -0.0002466658        0.0003894456        0.0001003828
Ti         0.0000898446       -0.0004239845       -0.0002063796
Ti        -0.0001808894       -0.0003840183        0.0002985749
Ti        -0.0001371938        0.0002824144       -0.0002518509
Ti        -0.0002434445       -0.0004309213        0.0029533243
Ti        -0.0002743301       -0.0004047605       -0.0027505170
O        -0.0000741724        0.0000196888       -0.0013529195
O        -0.0000592623       -0.0003439652        0.0007552764
O         0.0001999459        0.0001355219       -0.0009419623
O        -0.0003249928        0.0000079028        0.0019353323
O         0.0002408873        0.0002172378        0.0011188456
O         0.0002018524       -0.0002396831       -0.0023598672
O        -0.0002575763        0.0001181938       -0.0005925506
O         0.0000978009        0.0002289750        0.0011686152
O        -0.0000108904       -0.0002925466       -0.0009408959
O        -0.0000409218        0.0000095808        0.0005415391
O        -0.0000086315       -0.0000843418       -0.0008150419
O        -0.0002562681       -0.0001422181        0.0018181192
O         0.0000924496       -0.0002016323        0.0011227815
O         0.0000568189       -0.0001452580       -0.0021807775
O        -0.0000035833        0.0001951813       -0.0004351713
O         0.0002202166       -0.0000069821        0.0009882747
O        -0.0001459964       -0.0000027623        0.0009278417
O        -0.0000227032        0.0002259611       -0.0004562629
O        -0.0001695895       -0.0001955946        0.0020537408
O        -0.0002113485       -0.0000768064       -0.0007979470
O        -0.0000200449        0.0000091238        0.0005068279
O        -0.0000282302        0.0001106204       -0.0010001069
O         0.0000324103       -0.0001034390       -0.0019136566
O         0.0000967653        0.0000537439        0.0012142043
O        -0.0000543551       -0.0000284554       -0.0010591208
O        -0.0000555297        0.0000801078        0.0006971501
O         0.0000788563        0.0001367849       -0.0007287896
O         0.0004073419        0.0000000246        0.0018529464
O         0.0002078739        0.0001197007        0.0008971549
O         0.0001744061        0.0005933843       -0.0022322095
O         0.0001620140        0.0000872242       -0.0005231918
O         0.0001496769        0.0001851077        0.0008956379
O         0.0000458678       -0.0000510082       -0.0009901311
O        -0.0001384772       -0.0002313259        0.0006541947
O        -0.0000659634       -0.0000757239       -0.0007461381
O        -0.0005896591       -0.0002041707        0.0019195093
O        -0.0000236139       -0.0000783528        0.0012790156
O         0.0000444658       -0.0004952727       -0.0018765834
O        -0.0001866732        0.0000924406       -0.0005460258
O         0.0000114458       -0.0001311810        0.0011052106
O         0.0000214168       -0.0005383085       -0.0020260725
O         0.0000129947       -0.0000721115        0.0010972782
O        -0.0000413882       -0.0001633952        0.0005958428
O        -0.0001589639       -0.0000785857       -0.0011291789
O        -0.0005251115       -0.0001510262        0.0017210420
O        -0.0000909762       -0.0002263260       -0.0009538129
O         0.0000387081        0.0000500756        0.0009704752
O        -0.0002355634        0.0001312178       -0.0006047096
O        -0.0000066974       -0.0001725927       -0.0010406417
O        -0.0001832887       -0.0001364054        0.0007927505
O         0.0002553730        0.0000793730       -0.0006407144
O        -0.0000293267       -0.0000142759        0.0015850972
O         0.0001083182        0.0000593899        0.0009165473
O         0.0001780072        0.0001772631       -0.0020556561
O        -0.0000125152        0.0000258608       -0.0005196416
O         0.0002740923        0.0000810731        0.0010594769
O         0.0001551488        0.0002058933       -0.0022062022
O         0.0001267532        0.0000400382        0.0007687043
O        -0.0000561303        0.0000784164        0.0009896482
O        -0.0000818306        0.0000149398       -0.0005366006
O        -0.0000696032       -0.0001313641        0.0007010248
O        -0.0001821099       -0.0001976641       -0.0011848095
O         0.0001278027       -0.0000408904        0.0017972555
O         0.0000336602        0.0000929743       -0.0006389589
O        -0.0000348104       -0.0000704260        0.0006764359
O        -0.0001897486        0.0002053218       -0.0012517502
O         0.0000983973       -0.0000277995        0.0015815950
O         0.0000109772        0.0000140353       -0.0007999975
O         0.0001148142        0.0001475350       -0.0020184794
O         0.0001273996        0.0002904435        0.0008169188
O        -0.0000479984        0.0002099616        0.0008822429
O        -0.0000564183        0.0000106056       -0.0006316629
O         0.0001115882        0.0003379863        0.0009985651
O         0.0001616139        0.0001352602       -0.0018891758
O        -0.0000113195       -0.0000106628       -0.0005995643
O         0.0002403843        0.0002317729        0.0009255510
O        -0.0000034917        0.0001850861       -0.0010877581
O        -0.0001361624       -0.0000872725        0.0007502978
O         0.0002883869        0.0000066592       -0.0008316104
O        -0.0000242950        0.0000351789        0.0014603557
O         0.0000365935       -0.0000456637       -0.0007307285
O        -0.0001335997        0.0002266145        0.0006153068
O        -0.0001004316       -0.0000557055       -0.0005654286
O         0.0001216582       -0.0001937613        0.0018312294
O        -0.0000370844       -0.0000722267        0.0010492523
O         0.0000355605        0.0002192235       -0.0018059779
O         0.0001541711        0.0001080969       -0.0004763665
O         0.0000675164       -0.0001195406        0.0008259552
O         0.0000052783        0.0002414691       -0.0019592858
O         0.0000251429       -0.0000596549        0.0009172970
O        -0.0000211668        0.0001800310        0.0005475690
O        -0.0001199717       -0.0000378395       -0.0008596725
O         0.0000796166       -0.0001342481        0.0016694664
O        -0.0001130092       -0.0001929663       -0.0007066269
O         0.0000597140        0.0000228408        0.0007459209
O         0.0002019141        0.0001303196       -0.0005381049
O        -0.0000984006        0.0000495961       -0.0011183954
O        -0.0001789131       -0.0003189266        0.0007564807
O         0.0001853962       -0.0000481823       -0.0009001921
O        -0.0002353604        0.0000478263        0.0016065278
O         0.0000488837        0.0002135613        0.0010262155
O         0.0001159034       -0.0001376024       -0.0020214984
O        -0.0002511096       -0.0000306654       -0.0006044307
O         0.0001065696        0.0000518381        0.0009443602
O        -0.0000746825       -0.0002454869       -0.0007726802
O        -0.0001571056        0.0000004254        0.0005567651
O         0.0000251674       -0.0002494740       -0.0007514739
O        -0.0002143706       -0.0001090971        0.0015483432
O        -0.0000718865       -0.0001860964        0.0010285617
O         0.0000478637       -0.0001622713       -0.0017916201
O         0.0000131375        0.0000474883       -0.0004521877
O         0.0001606375       -0.0000868927        0.0007715683
O        -0.0001142547       -0.0000839817        0.0007358842
O        -0.0000275598        0.0000840491       -0.0004599048
O        -0.0002026367       -0.0000968816        0.0016932317
O        -0.0001832775       -0.0002404922       -0.0007421091
O        -0.0001388319        0.0000188637        0.0005112993
O        -0.0000815597        0.0000706633       -0.0007891950
O        -0.0000103347       -0.0000810197       -0.0016588388
O        -0.0000789627        0.0000295309        0.0011119896
O        -0.0000947193       -0.0000277238       -0.0009025404
O        -0.0001782288        0.0000740119        0.0007077927
O         0.0000751592       -0.0000360699       -0.0006951053
O         0.0003265573        0.0000271795        0.0015596625
O         0.0000286101        0.0001210023        0.0008278074
O         0.0001012026        0.0004690142       -0.0019310444
O         0.0001173716       -0.0000522175       -0.0005428333
O         0.0001434839        0.0000466625        0.0007290498
     192
 i =        7, E =     -5781.8031826209
Ti         0.0040527306        0.0101064989        0.0064898393
Ti        -0.0090635980        0.0050658737       -0.0110133241
Ti        -0.0165657114       -0.0152649671       -0.0279358803
Ti        -0.0128038428       -0.0168836093        0.0398507390
Ti        -0.0153022759        0.0147144255        0.0051943791
Ti        -0.0024748598       -0.0092924788       -0.0021072285
Ti         0.0182998034        0.0104595057       -0.0517379771
Ti         0.0037529400        0.0082411993        0.0251540130
Ti        -0.0019703937        0.0018817545        0.0319937561
Ti         0.0035083877        0.0218974794       -0.0134751466
Ti        -0.0032865644       -0.0220004457       -0.0043149037
Ti        -0.0101789781        0.0218905420        0.0083326684
Ti        -0.0137088891        0.0201599638        0.0103066330
Ti         0.0056396852       -0.0204765671       -0.0097192891
Ti         0.0060598133        0.0117010061        0.0244157870
Ti        -0.0024722662        0.0092510051       -0.0495905307
Ti        -0.0062485036       -0.0193927468       -0.0104076435
Ti        -0.0098831651       -0.0061263856       -0.0031686488
Ti         0.0027207051        0.0079110099       -0.0438077933
Ti         0.0011067199        0.0213442032        0.0272383656
Ti         0.0056788487       -0.0206133095        0.0068186805
Ti        -0.0089867140        0.0217863513       -0.0084884268
Ti         0.0002970332       -0.0233883740       -0.0341588454
Ti         0.0021445270       -0.0186282130        0.0467456460
Ti        -0.0151398112       -0.0052768307        0.0521347764
Ti        -0.0155695420       -0.0115300741       -0.0285381240
Ti         0.0087032133        0.0022816149       -0.0114595027
Ti         0.0197062970       -0.0337819705        0.0188898250
Ti        -0.0054917312       -0.0388946407        0.0141979559
Ti        -0.0012361847        0.0168017131       -0.0075749236
Ti        -0.0001364682       -0.0222853717       -0.0258946998
Ti        -0.0095327697       -0.0025006279        0.0442555101
Ti        -0.0046042852       -0.0257123074        0.0503803033
Ti        -0.0169377610       -0.0095837029       -0.0325707544
Ti        -0.0074276566        0.0040264847       -0.0095735006
Ti         0.0060822429       -0.0180155358        0.0158998011
Ti        -0.0069744066       -0.0100808794       -0.0328281435
Ti        -0.0112792714       -0.0249952694        0.0416753614
Ti         0.0035432865       -0.0185998076        0.0148620561
Ti         0.0021870425        0.0047718773       -0.0157591989
Ti        -0.0064116290        0.0163271091       -0.0038372691
Ti         0.0214779988       -0.0396862106        0.0143294958
Ti        -0.0067761907       -0.0054527936        0.0401649236
Ti        -0.0217861074       -0.0212189273       -0.0248500743
Ti        -0.0242900290        0.0342233213        0.0016073555
Ti         0.0050771608       -0.0032528347       -0.0075780361
Ti         0.0184110506        0.0078569304       -0.0472418768
Ti         0.0146006111        0.0239482506        0.0322343017
Ti         0.0091846315        0.0204375849        0.0360861805
Ti        -0.0026777752        0.0243400620       -0.0513966452
Ti         0.0132778123       -0.0186185603       -0.0114779651
Ti        -0.0009126108        0.0358209901        0.0096403766
Ti         0.0166100649        0.0249814171       -0.0512462342
Ti         0.0012424658        0.0203480144        0.0299438261
Ti        -0.0038247804       -0.0005673214       -0.0022097456
Ti         0.0005215820        0.0327556485        0.0004500447
Ti         0.0173282386        0.0000570845        0.0311636013
Ti         0.0193594322        0.0206664273       -0.0568317106
Ti         0.0000279704        0.0097077601        0.0109234181
Ti         0.0123213899       -0.0085178031       -0.0052767845
Ti         0.0185142912       -0.0143967690        0.0131288617
Ti         0.0097535848        0.0229895984       -0.0097316343
Ti         0.0009613171       -0.0030954146       -0.0363085182
Ti         0.0038964467       -0.0040879413        0.0499016688
O        -0.0003914575       -0.0048337223        0.0030746731
O         0.0015956952       -0.0012802111       -0.0185888278
O         0.0053927837        0.0068079214       -0.0025553868
O        -0.0038289192       -0.0045005131       -0.0215755520
O         0.0052791757        0.0053610864        0.0059219628
O         0.0042789163        0.0006401441        0.0136774428
O        -0.0016419201        0.0022569946        0.0232465897
O         0.0020660454        0.0037592117       -0.0125247089
O         0.0021919058       -0.0025556878        0.0160749840
O         0.0024618114        0.0003100205       -0.0218677744
O        -0.0075000973        0.0001757277        0.0077404557
O        -0.0069804672       -0.0022233827       -0.0199725035
O         0.0037919408        0.0006280108        0.0077109699
O         0.0007927372       -0.0065578506        0.0082705624
O         0.0056925271        0.0046418478        0.0216818776
O         0.0008207965        0.0009651859       -0.0185506485
O         0.0031640553        0.0009732066       -0.0186909353
O         0.0072875150        0.0047594558        0.0257480505
O         0.0056645363       -0.0083217780       -0.0183146200
O        -0.0014281134        0.0003455459        0.0089404052
O         0.0027241148        0.0013802877       -0.0186368858
O         0.0015997179       -0.0005521445        0.0099314901
O         0.0027520642       -0.0010376199        0.0171759412
O         0.0037059687       -0.0047494046        0.0086502823
O        -0.0005421247        0.0033521670        0.0146229125
O         0.0012557370       -0.0063162941       -0.0182958043
O         0.0004678263        0.0068637928        0.0049271210
O         0.0011470822        0.0010423234       -0.0255025285
O         0.0050989696        0.0043502362       -0.0022101619
O         0.0038208091        0.0106584205        0.0140057090
O        -0.0091229279        0.0032042296        0.0241300683
O        -0.0012334881        0.0051359991       -0.0212790463
O         0.0057049281       -0.0065221308        0.0129527095
O        -0.0020189280        0.0009200822       -0.0217195988
O        -0.0044940901        0.0000829631        0.0006702484
O        -0.0136121919       -0.0013200347       -0.0153618250
O        -0.0020064119       -0.0050938028        0.0122760410
O         0.0048098124       -0.0047770445        0.0200873852
O         0.0095975599        0.0064475095        0.0241188525
O         0.0003736173       -0.0068830351       -0.0142102786
O        -0.0045807235       -0.0051376048        0.0177536530
O         0.0027320403       -0.0039433518        0.0112297672
O         0.0015846858        0.0047971919       -0.0211396342
O        -0.0044354359       -0.0068901809        0.0150082103
O        -0.0019788210        0.0012910069       -0.0219366631
O        -0.0046900555       -0.0052619019       -0.0056141605
O         0.0019717844        0.0047524392       -0.0174394143
O         0.0020425201        0.0016832889        0.0209048555
O         0.0032064136        0.0097753263        0.0102076645
O        -0.0027997004       -0.0038649801       -0.0212729878
O         0.0006135229        0.0032499960       -0.0015577119
O         0.0028851061       -0.0035670269       -0.0211185974
O         0.0017254346        0.0115224865        0.0030336793
O         0.0055601127        0.0067122116        0.0166891662
O        -0.0015181660        0.0045148913        0.0220957576
O         0.0019471699        0.0000220058       -0.0190601415
O         0.0010387253        0.0054812502        0.0152366911
O         0.0055306089        0.0117542160        0.0042182775
O         0.0027746917        0.0004415896       -0.0207656735
O        -0.0035077125        0.0050533636        0.0255225890
O        -0.0000994074       -0.0024270199       -0.0219324002
O        -0.0061135970        0.0096954265        0.0118858859
O         0.0175915649        0.0029186261       -0.0204772987
O         0.0085372754        0.0031674427       -0.0017345348
O         0.0001886251        0.0002259670       -0.0178663777
O        -0.0050228510        0.0023379143        0.0125938438
O         0.0054226974        0.0062743559       -0.0297404889
O         0.0054770047       -0.0014736504       -0.0021300940
O        -0.0010737247        0.0087538158        0.0099165147
O         0.0057857264        0.0017055221        0.0050353343
O         0.0057475464        0.0081377439       -0.0184222743
O         0.0030610618       -0.0006048984        0.0219463861
O         0.0017438943        0.0044089904        0.0061652042
O         0.0063082549        0.0079739478        0.0125928928
O        -0.0039417777       -0.0004546724        0.0228083481
O        -0.0030558625        0.0084923172       -0.0182670247
O         0.0031737072        0.0024689499        0.0115977278
O        -0.0034023168       -0.0002673477       -0.0183782979
O         0.0040444429       -0.0016649990       -0.0021062832
O         0.0046816725        0.0054679957       -0.0225958371
O         0.0056028488       -0.0076939042        0.0169527756
O        -0.0019908822       -0.0019640059       -0.0205798380
O        -0.0074019798       -0.0000373579        0.0070067495
O        -0.0083148514       -0.0063140466       -0.0208171143
O        -0.0019198918       -0.0034830412        0.0065184381
O         0.0053658526       -0.0062441490        0.0206236690
O        -0.0011846941        0.0065449270        0.0236498063
O        -0.0013789368       -0.0082030322       -0.0238864009
O        -0.0033794531       -0.0045846910        0.0170942883
O         0.0023223235       -0.0046575285        0.0067807750
O         0.0017603903       -0.0054109587       -0.0210198505
O        -0.0046426375       -0.0069929056        0.0191395741
O        -0.0118104789        0.0008278054       -0.0219731798
O        -0.0073419796       -0.0047609316        0.0077847142
O        -0.0018392719        0.0042084644       -0.0204016995
O         0.0019410680        0.0018298508        0.0245245028
O        -0.0069548345        0.0063545091        0.0070191398
O        -0.0059102905        0.0021240903       -0.0201593531
O         0.0049464355       -0.0046163010       -0.0048285071
O         0.0080308701       -0.0056175381       -0.0269265039
O        -0.0026866876        0.0066749012        0.0065005950
O        -0.0009582459        0.0120556981        0.0151643759
O        -0.0014934543       -0.0036033250        0.0236634185
O         0.0009692850       -0.0000832619       -0.0162126444
O        -0.0034943575        0.0006436493        0.0136682228
O        -0.0049465954       -0.0001679488       -0.0240304445
O        -0.0069382122       -0.0071669280        0.0030197270
O        -0.0034997510       -0.0071932921       -0.0197082304
O        -0.0058185473        0.0015973949        0.0089509097
O        -0.0031637004       -0.0053616246        0.0243304831
O         0.0059240520       -0.0009021453        0.0223944385
O        -0.0030556632       -0.0047072500       -0.0178983940
O         0.0067643001       -0.0042542325       -0.0178827451
O         0.0073055348       -0.0005051966        0.0266277098
O        -0.0048502052       -0.0073514565       -0.0234052754
O        -0.0009238977       -0.0071260465        0.0041194916
O        -0.0048369652        0.0015575234       -0.0188001841
O        -0.0043892746       -0.0114364703        0.0148940473
O        -0.0029996449       -0.0008384107        0.0162237113
O        -0.0070641351       -0.0068703699        0.0090727635
O        -0.0062395880        0.0003205001        0.0124918019
O        -0.0058407276       -0.0083207107       -0.0204721457
O         0.0001922348       -0.0044607595        0.0014424686
O        -0.0012154417       -0.0053491992       -0.0248886623
O        -0.0023391369        0.0034473490        0.0009545151
O        -0.0012058973       -0.0009519000        0.0154784344
O        -0.0092778225       -0.0039299325        0.0245591278
O        -0.0016797297       -0.0005524265       -0.0195580452
     192
 i =        8, E =     -5782.0090890675
Ti         0.0004227891        0.0002790889        0.0009819721
Ti        -0.0004383054        0.0006726054       -0.0007113950
Ti        -0.0005262964       -0.0008985608        0.0021544410
Ti        -0.0006182918       -0.0006633882       -0.0018611948
Ti        -0.0001884550        0.0008300886        0.0003096697
Ti         0.0003212998       -0.0009276716       -0.0002988810
Ti         0.0006289175        0.0010806149        0.0014369983
Ti         0.0005273150        0.0007587404       -0.0018685106
Ti         0.0002314239        0.0007317470       -0.0016960191
Ti         0.0005490152        0.0011597410        0.0020890166
Ti         0.0001936284       -0.0009804516       -0.0004323338
Ti        -0.0008511818        0.0004711930        0.0005451942
Ti         0.0004606554        0.0003610962        0.0005773128
Ti         0.0002388459       -0.0008537080       -0.0006631276
Ti         0.0003146009        0.0008555871       -0.0027264733
Ti         0.0003880489        0.0009530565        0.0012618502
Ti         0.0000291657       -0.0008377305       -0.0005484807
Ti         0.0000798462       -0.0002616832        0.0002171332
Ti         0.0005088563        0.0008942247        0.0011237780
Ti         0.0003803521        0.0008194350       -0.0023939910
Ti         0.0006189660       -0.0007233230        0.0005567412
Ti        -0.0004374630        0.0008252156       -0.0005073473
Ti        -0.0003684498       -0.0013344070        0.0013430807
Ti        -0.0004557957       -0.0006354735       -0.0011540208
Ti        -0.0006824975       -0.0006794484       -0.0004506060
Ti        -0.0004609276       -0.0012383377        0.0018866850
Ti        -0.0001392370        0.0004735116       -0.0007760545
Ti         0.0001717838       -0.0006553452        0.0012632424
Ti         0.0001775035       -0.0000078100        0.0009131305
Ti        -0.0004905037        0.0007042996       -0.0005910940
Ti        -0.0002717534       -0.0013175542        0.0014063467
Ti        -0.0004298570       -0.0004933476       -0.0006797851
Ti        -0.0005507566       -0.0006926959       -0.0007747343
Ti        -0.0004477249       -0.0010613575        0.0017136284
Ti        -0.0003874156        0.0005460007       -0.0006138105
Ti        -0.0003826689       -0.0004223681        0.0008809821
Ti        -0.0005722505       -0.0010958307        0.0019475584
Ti        -0.0005529260       -0.0007833261       -0.0008549364
Ti         0.0009488544       -0.0006322403        0.0008656505
Ti        -0.0002328529        0.0006233209       -0.0008443095
Ti        -0.0003141423        0.0006988908       -0.0004595051
Ti         0.0005027974        0.0000189559        0.0009438951
Ti        -0.0006098938       -0.0005757855       -0.0016559190
Ti        -0.0007007233       -0.0011674703        0.0013028104
Ti        -0.0004933173        0.0004595309        0.0002159027
Ti         0.0002346175       -0.0007268154       -0.0005395418
Ti         0.0006197212        0.0008372923        0.0007738803
Ti         0.0004217968        0.0008674982       -0.0017001831
Ti         0.0004621690        0.0006480881       -0.0014478541
Ti         0.0003525599        0.0011179455        0.0006978943
Ti         0.0004274052       -0.0008079179       -0.0006540411
Ti        -0.0004409417        0.0007028993        0.0005145049
Ti         0.0005999582        0.0011911840        0.0012111663
Ti         0.0002802706        0.0007619632       -0.0013119963
Ti         0.0001409392       -0.0005228224       -0.0003074114
Ti        -0.0001035992        0.0001076838        0.0002315334
Ti         0.0006412515        0.0005398365       -0.0016058689
Ti         0.0006058964        0.0010817144        0.0003440844
Ti        -0.0002774386        0.0003392636        0.0005363368
Ti         0.0003251934       -0.0008403436       -0.0004529581
Ti         0.0001922493       -0.0002699743        0.0007976246
Ti        -0.0000861822        0.0009038407       -0.0005967376
Ti        -0.0003618902       -0.0007209986        0.0010647944
Ti        -0.0002900805       -0.0005552330       -0.0006481993
O        -0.0001502586        0.0001500253       -0.0011512672
O        -0.0001021420       -0.0004244733        0.0002415576
O         0.0003019012        0.0001051909       -0.0008045583
O        -0.0001339237        0.0000201689       -0.0001572607
O         0.0005743273        0.0002662782        0.0011279913
O         0.0005691281       -0.0007550682       -0.0012201816
O        -0.0001392123        0.0005857750        0.0005153505
O         0.0001118664        0.0007187085        0.0005739980
O        -0.0000484569       -0.0001226653       -0.0003332206
O        -0.0001328668        0.0001020941       -0.0003489674
O        -0.0001951206       -0.0001138323       -0.0004921423
O        -0.0006617809       -0.0003223561        0.0000943645
O         0.0003240197       -0.0002222230        0.0012702325
O         0.0004345917       -0.0003350528       -0.0003730110
O        -0.0000357615        0.0007321970        0.0006611514
O         0.0001848283        0.0001007240        0.0003344176
O        -0.0002088523        0.0001113823        0.0002589773
O         0.0000602658        0.0008267245        0.0008102998
O        -0.0001230425       -0.0002662416        0.0003541957
O        -0.0002761342       -0.0001191975       -0.0005397491
O        -0.0000823980       -0.0000539571       -0.0002361084
O        -0.0000470748       -0.0000192286       -0.0004087672