#     Step Nr.          Time[fs]        Kin.[a.u.]          Temp[K]            Pot.[a.u.]        Cons Qty[a.u.]        UsedTime[s]
      8575         4288.000000         0.044652096       200.000000000     -1445.565020005     -1445.520367909        25.437008869
      8576         4289.000000         0.044161774       197.803809772     -1445.564530094     -1445.520368320         3.423214676
      8577         4290.000000         0.043247612       193.709211219     -1445.563612525     -1445.520364913         2.802715850
      8578         4291.000000         0.044652096       200.000000000     -1445.562309313     -1445.517657216         2.194988344
      8579         4292.000000         0.042982593       192.522171082     -1445.560633860     -1445.517651267         2.231788757
      8580         4293.000000         0.044652096       200.000000000     -1445.558718081     -1445.514065984         2.206084759
      8581         4294.000000         0.042501912       190.369166045     -1445.556561479     -1445.514059567         2.203857385
      8582         4295.000000         0.044652096       200.000000000     -1445.554326496     -1445.509674400         2.208204389
      8583         4296.000000         0.044652096       200.000000000     -1445.551954013     -1445.507301917         2.201543827
      8584         4297.000000         0.044652096       200.000000000     -1445.549535491     -1445.504883395         2.258243318
      8585         4298.000000         0.044652096       200.000000000     -1445.547128772     -1445.502476676         2.205984910
      8586         4299.000000         0.044652096       200.000000000     -1445.544811704     -1445.500159607         2.222139647
      8587         4300.000000         0.042517905       190.440801222     -1445.542671111     -1445.500153206         2.205533103
      8588         4301.000000         0.044652096       200.000000000     -1445.540840825     -1445.496188728         2.203593264
      8589         4302.000000         0.043074492       192.933792767     -1445.539264199     -1445.496189708         2.204188463
      8590         4303.000000         0.044652096       200.000000000     -1445.537994817     -1445.493342721         2.508517913
      8591         4304.000000         0.043600386       195.289313825     -1445.536946431     -1445.493346045         2.205140448
      8592         4305.000000         0.042749961       191.480196182     -1445.536098971     -1445.493349010         2.522423767
      8593         4306.000000         0.044652096       200.000000000     -1445.535415051     -1445.490762954         1.919959602
      8594         4307.000000         0.044064122       197.366419673     -1445.534828494     -1445.490764372         2.204450550
      8595         4308.000000         0.043545675       195.044259379     -1445.534312825     -1445.490767150         2.202368542
      8596         4309.000000         0.043064946       192.891036928     -1445.533833769     -1445.490768824         2.195680998
      8597         4310.000000         0.042581509       190.725686951     -1445.533352497     -1445.490770988         2.196081017
      8598         4311.000000         0.044652096       200.000000000     -1445.532833705     -1445.488181609         2.194619866
      8599         4312.000000         0.044038455       197.251456475     -1445.532220973     -1445.488182518         2.225142011
      8600         4313.000000         0.043340344       194.124564442     -1445.531520739     -1445.488180395         6.180264640
      8601         4314.000000         0.042598570       190.802106495     -1445.530773827     -1445.488175256         2.200233212
      8602         4315.000000         0.044652096       200.000000000     -1445.530036631     -1445.485384534         2.194968838
      8603         4316.000000         0.043932785       196.778152764     -1445.529317822     -1445.485385037         2.198093825
      8604         4317.000000         0.043269089       193.805407402     -1445.528655182     -1445.485386093         2.197770901
      8605         4318.000000         0.042680107       191.167317811     -1445.528063455     -1445.485383348         2.199393449
      8606         4319.000000         0.044652096       200.000000000     -1445.527556239     -1445.482904143         2.251811651
      8607         4320.000000         0.044218466       198.057739197     -1445.527122253     -1445.482903787         2.198719220
      8608         4321.000000         0.043882676       196.553709702     -1445.526784792     -1445.482902116         2.197870421
      8609         4322.000000         0.043673170       195.615317791     -1445.526572574     -1445.482899404         2.204784874
      8610         4323.000000         0.043580961       195.202304364     -1445.526482443     -1445.482901483         2.200753578
      8611         4324.000000         0.043557795       195.098543739     -1445.526464292     -1445.482906497         2.215572934
      8612         4325.000000         0.043545192       195.042095835     -1445.526453305     -1445.482908113         2.207833685
      8613         4326.000000         0.043509556       194.882479097     -1445.526416151     -1445.482906595         2.205522503
      8614         4327.000000         0.043438886       194.565940990     -1445.526345751     -1445.482906865         2.258725762
      8615         4328.000000         0.043311277       193.994373043     -1445.526220669     -1445.482909391         2.216142363
      8616         4329.000000         0.043095658       193.028599104     -1445.526005699     -1445.482910041         2.210274245
      8617         4330.000000         0.042786409       191.643452369     -1445.525693133     -1445.482906724         2.205382347
      8618         4331.000000         0.042421014       190.006818745     -1445.525323055     -1445.482902041         2.204724850
      8619         4332.000000         0.044652096       200.000000000     -1445.524955898     -1445.480303802         2.201520442
      8620         4333.000000         0.044309181       198.464056563     -1445.524611469     -1445.480302288         2.198010316
      8621         4334.000000         0.044024397       197.188490255     -1445.524324637     -1445.480300239         2.206731836
      8622         4335.000000         0.043853161       196.421510878     -1445.524148555     -1445.480295394         2.262122575
      8623         4336.000000         0.043853638       196.423644595     -1445.524144525     -1445.480290888         2.201149540
      8624         4337.000000         0.044087162       197.469616435     -1445.524374753     -1445.480287592         2.205161759
      8625         4338.000000         0.044610357       199.813047765     -1445.524895675     -1445.480285318         2.229219234
      8626         4339.000000         0.045457794       203.608779439     -1445.525743035     -1445.480285241         2.213676887
      8627         4340.000000         0.046625204       208.837691383     -1445.526913697     -1445.480288494         2.204263115
      8628         4341.000000         0.044652096       200.000000000     -1445.528358882     -1445.483706786         2.206643568
      8629         4342.000000         0.046249174       207.153426993     -1445.529962437     -1445.483713263         2.602626350
      8630         4343.000000         0.044652096       200.000000000     -1445.531707348     -1445.487055252         2.271705619
      8631         4344.000000         0.046399761       207.827915622     -1445.533461565     -1445.487061805         2.209696669
      8632         4345.000000         0.044652096       200.000000000     -1445.535224787     -1445.490572690         2.206165201
      8633         4346.000000         0.046293595       207.352394492     -1445.536870313     -1445.490576717         2.214201503
      8634         4347.000000         0.044652096       200.000000000     -1445.538410270     -1445.493758174         2.207442634
      8635         4348.000000         0.046001869       206.045731684     -1445.539762110     -1445.493760240         2.207700604
      8636         4349.000000         0.044652096       200.000000000     -1445.540958875     -1445.496306778         2.208685842
      8637         4350.000000         0.045639186       204.421247551     -1445.541949365     -1445.496310179         2.262400772
      8638         4351.000000         0.046418883       207.913567112     -1445.542732968     -1445.496314085         2.261196378
      8639         4352.000000         0.044652096       200.000000000     -1445.543254764     -1445.498602668         2.210743354
      8640         4353.000000         0.044893951       201.083284645     -1445.543496103     -1445.498602152         2.209832056
      8641         4354.000000         0.044899854       201.109723862     -1445.543498342     -1445.498598489         1.929291781
      8642         4355.000000         0.044713448       200.274796899     -1445.543308461     -1445.498595014         2.219230510
      8643         4356.000000         0.044398225       198.862891256     -1445.542988414     -1445.498590190         1.920833841
      8644         4357.000000         0.044012842       197.136731093     -1445.542598487     -1445.498585645         2.203525586
      8645         4358.000000         0.043606162       195.315185829     -1445.542188796     -1445.498582633         1.922808956
      8646         4359.000000         0.043219716       193.584264897     -1445.541800506     -1445.498580790         2.253122747
      8647         4360.000000         0.042884677       192.083599118     -1445.541464667     -1445.498579990         2.201137587
      8648         4361.000000         0.042614811       190.874852123     -1445.541195219     -1445.498580408         2.203983233
      8649         4362.000000         0.044652096       200.000000000     -1445.540987224     -1445.496335127         2.205542400
      8650         4363.000000         0.044461278       199.145310374     -1445.540799408     -1445.496338130         2.203467054
      8651         4364.000000         0.044258553       198.237291738     -1445.540597825     -1445.496339271         2.202477348
      8652         4365.000000         0.044038687       197.252495965     -1445.540376366     -1445.496337678         2.227934507
      8653         4366.000000         0.043805205       196.206712737     -1445.540141382     -1445.496336177         2.260765281
      8654         4367.000000         0.043567180       195.140578634     -1445.539902885     -1445.496335705         2.254690470
      8655         4368.000000         0.043336228       194.106129599     -1445.539671381     -1445.496335153         2.203933609
      8656         4369.000000         0.043122563       193.149109690     -1445.539457128     -1445.496334565         2.203054452
      8657         4370.000000         0.042932761       192.298969794     -1445.539267295     -1445.496334535         2.205443994
      8658         4371.000000         0.042768626       191.563796863     -1445.539103627     -1445.496335001         2.202249425
      8659         4372.000000         0.042629725       190.941650273     -1445.538965277     -1445.496335552         2.202769261
      8660         4373.000000         0.042516975       190.436633378     -1445.538852370     -1445.496335396         2.199960715
      8661         4374.000000         0.042438659       190.085852628     -1445.538772559     -1445.496333900         2.197322201
      8662         4375.000000         0.044652096       200.000000000     -1445.538747225     -1445.494095129         2.245363912
      8663         4376.000000         0.044700319       200.215991304     -1445.538793637     -1445.494093319         2.201040202
      8664         4377.000000         0.044836072       200.824041472     -1445.538928839     -1445.494092766         2.201800945
      8665         4378.000000         0.045076267       201.899890080     -1445.539168916     -1445.494092649         2.204745419
      8666         4379.000000         0.045407223       203.382265951     -1445.539502279     -1445.494095056         2.237851425
      8667         4380.000000         0.045794590       205.117314673     -1445.539893620     -1445.494099029         2.223460041
      8668         4381.000000         0.046198214       206.925175828     -1445.540299993     -1445.494101778         2.199560706
      8669         4382.000000         0.046586385       208.663818467     -1445.540688873     -1445.494102489         2.198936092
      8670         4383.000000         0.044652096       200.000000000     -1445.541045041     -1445.496392945         2.279618806
      8671         4384.000000         0.044980175       201.469489531     -1445.541372355     -1445.496392180         2.205706312
      8672         4385.000000         0.045296453       202.886118992     -1445.541688901     -1445.496392449         2.197119176
      8673         4386.000000         0.045586109       204.183513106     -1445.541980655     -1445.496394546         2.195454939
      8674         4387.000000         0.045838326       205.313207190     -1445.542234246     -1445.496395921         2.189528080
      8675         4388.000000         0.046045116       206.239435357     -1445.542440989     -1445.496395874         2.194938129
      8676         4389.000000         0.046204462       206.953161338     -1445.542599435     -1445.496394972         2.193213329
      8677         4390.000000         0.046327504       207.504273028     -1445.542721125     -1445.496393621         2.222953441
      8678         4391.000000         0.046438668       208.002183552     -1445.542830662     -1445.496391995         2.216790342
      8679         4392.000000         0.046567276       208.578228653     -1445.542957880     -1445.496390604         2.216142083
      8680         4393.000000         0.046736717       209.337170295     -1445.543127215     -1445.496390498         2.198951531
      8681         4394.000000         0.044652096       200.000000000     -1445.543345768     -1445.498693672         2.195889063
      8682         4395.000000         0.044911327       201.161113147     -1445.543606265     -1445.498694938         2.197728592
      8683         4396.000000         0.045214492       202.519009115     -1445.543908780     -1445.498694289         2.202318767
      8684         4397.000000         0.045556606       204.051364402     -1445.544250920     -1445.498694314         2.190982317
      8685         4398.000000         0.045950706       205.816568973     -1445.544644032     -1445.498693326         2.232112451
      8686         4399.000000         0.046408337       207.866332140     -1445.545100697     -1445.498692360         2.206468547
      8687         4400.000000         0.044652096       200.000000000     -1445.545617505     -1445.500965409         2.192289657
      8688         4401.000000         0.045195548       202.434161440     -1445.546163521     -1445.500967972         2.192352426
      8689         4402.000000         0.045739162       204.869048003     -1445.546710751     -1445.500971588         2.194767726
      8690         4403.000000         0.046218164       207.014533637     -1445.547194719     -1445.500976555         2.190873702
      8691         4404.000000         0.046575454       208.614857996     -1445.547555554     -1445.500980101         2.189616156
      8692         4405.000000         0.046763767       209.458328934     -1445.547745343     -1445.500981575         2.187347554
      8693         4406.000000         0.046752225       209.406630569     -1445.547733628     -1445.500981403         2.254188377
      8694         4407.000000         0.046534201       208.430083238     -1445.547514581     -1445.500980380         2.203423893
      8695         4408.000000         0.046125852       206.601060089     -1445.547104379     -1445.500978527         2.186165132
      8696         4409.000000         0.045560502       204.068817109     -1445.546536174     -1445.500975671         2.191061457
      8697         4410.000000         0.044883725       201.037483314     -1445.545856058     -1445.500972332         2.209005097
      8698         4411.000000         0.044148240       197.743192347     -1445.545117476     -1445.500969236         2.203060063
      8699         4412.000000         0.043407568       194.425666468     -1445.544374137     -1445.500966569         2.189483886
      8700         4413.000000         0.042713630       191.317466271     -1445.543677485     -1445.500963856         7.137280490
      8701         4414.000000         0.044652096       200.000000000     -1445.543078510     -1445.498426414         2.190675305
      8702         4415.000000         0.044168324       197.833149198     -1445.542593333     -1445.498425009         2.191115690
      8703         4416.000000         0.043841141       196.367673695     -1445.542265305     -1445.498424163         2.193626161
      8704         4417.000000         0.043703887       195.752901884     -1445.542126391     -1445.498422503         2.226819022
      8705         4418.000000         0.043765604       196.029333966     -1445.542188746     -1445.498423143         2.199055157
      8706         4419.000000         0.044015354       197.147983382     -1445.542441967     -1445.498426613         2.195975667
      8707         4420.000000         0.044422028       198.969505276     -1445.542853297     -1445.498431270         2.252917337
      8708         4421.000000         0.044934446       201.264665150     -1445.543370412     -1445.498435966         2.195586158
      8709         4422.000000         0.045490298       203.754366791     -1445.543930417     -1445.498440119         2.196589912
      8710         4423.000000         0.046029970       206.171596795     -1445.544473451     -1445.498443481         2.199387999
      8711         4424.000000         0.046505634       208.302132169     -1445.544951553     -1445.498445919         2.199662820
      8712         4425.000000         0.046882955       209.992179673     -1445.545330242     -1445.498447287         2.204538056
      8713         4426.000000         0.044652096       200.000000000     -1445.545588380     -1445.500936283         2.201822546
      8714         4427.000000         0.044793162       200.631844947     -1445.545728218     -1445.500935055         2.203905957
      8715         4428.000000         0.044831288       200.802614547     -1445.545765971     -1445.500934683         2.248294850
      8716         4429.000000         0.044755351       200.462484253     -1445.545692661     -1445.500937310         2.203978144
      8717         4430.000000         0.044560093       199.587910156     -1445.545498595     -1445.500938502         2.201763154
      8718         4431.000000         0.044244434       198.174051641     -1445.545181684     -1445.500937250         2.229290338
      8719         4432.000000         0.043814867       196.249988931     -1445.544749604     -1445.500934737         2.195489906
      8720         4433.000000         0.043291609       193.906276665     -1445.544223151     -1445.500931542         2.203890267
      8721         4434.000000         0.042711039       191.305861635     -1445.543638611     -1445.500927572         2.202474041
      8722         4435.000000         0.044652096       200.000000000     -1445.543043371     -1445.498391275         2.211361977
      8723         4436.000000         0.044062595       197.359580501     -1445.542451303     -1445.498388708         2.252207852
      8724         4437.000000         0.043518598       194.922976880     -1445.541905188     -1445.498386590         2.197427931
      8725         4438.000000         0.043056151       192.851646075     -1445.541438649     -1445.498382497         2.198971328
      8726         4439.000000         0.042700180       191.257224273     -1445.541079112     -1445.498378932         2.196133156
      8727         4440.000000         0.042475250       190.249745794     -1445.540852015     -1445.498376765         2.200591160
      8728         4441.000000         0.044652096       200.000000000     -1445.540778010     -1445.496125914         2.197642128
      8729         4442.000000         0.044724326       200.323521830     -1445.540850973     -1445.496126647         2.196716773
      8730         4443.000000         0.044916659       201.184997613     -1445.541045506     -1445.496128846         2.192868905
      8731         4444.000000         0.045198039       202.445316725     -1445.541329025     -1445.496130986         2.283268077
      8732         4445.000000         0.045516961       203.873792785     -1445.541651557     -1445.496134596         2.207816042
      8733         4446.000000         0.045813975       205.204138370     -1445.541953198     -1445.496139223         2.200553640
      8734         4447.000000         0.046031953       206.180477848     -1445.542174616     -1445.496142663         2.200123784
      8735         4448.000000         0.046127356       206.607797558     -1445.542271104     -1445.496143748         2.199167070
      8736         4449.000000         0.046083147       206.409780372     -1445.542225327     -1445.496142180         2.196353524
      8737         4450.000000         0.045913145       205.648329883     -1445.542052793     -1445.496139648         2.197656916
      8738         4451.000000         0.045651226       204.475173800     -1445.541788229     -1445.496137003         2.194286624
      8739         4452.000000         0.045336782       203.066757032     -1445.541471081     -1445.496134299         2.258640752
      8740         4453.000000         0.045011223       201.608553083     -1445.541142444     -1445.496131221         2.198397590
      8741         4454.000000         0.044718449       200.297197242     -1445.540846731     -1445.496128282         2.201932775
      8742         4455.000000         0.044499978       199.318649069     -1445.540626389     -1445.496126411         2.194511520
      8743         4456.000000         0.044383387       198.796429642     -1445.540509601     -1445.496126215         2.192104005
      8744         4457.000000         0.044374104       198.754849938     -1445.540501818     -1445.496127715         2.198345000
      8745         4458.000000         0.044456828       199.125377771     -1445.540586603     -1445.496129776         2.213499772
      8746         4459.000000         0.044607892       199.802004030     -1445.540739013     -1445.496131121         2.410509881
      8747         4460.000000         0.044809077       200.703126150     -1445.540940528     -1445.496131451         2.254724544
      8748         4461.000000         0.045051821       201.790397161     -1445.541183284     -1445.496131463         2.198484565
      8749         4462.000000         0.045328735       203.030712801     -1445.541461216     -1445.496132481         2.222841228
      8750         4463.000000         0.045619979       204.335219323     -1445.541755148     -1445.496135168         2.197348882
      8751         4464.000000         0.045887115       205.531740148     -1445.542025974     -1445.496138859         2.198249579
      8752         4465.000000         0.046080988       206.400109655     -1445.542223015     -1445.496142027         2.195726244
      8753         4466.000000         0.046159598       206.752211395     -1445.542302772     -1445.496143173         2.196989670
      8754         4467.000000         0.046105081       206.508026207     -1445.542247226     -1445.496142144         2.190775855
      8755         4468.000000         0.045926755       205.709287967     -1445.542066838     -1445.496140084         2.248945985
      8756         4469.000000         0.045648770       204.464172036     -1445.541787292     -1445.496138523         2.191558710
      8757         4470.000000         0.045293311       202.872046045     -1445.541431393     -1445.496138083         2.190327225
      8758         4471.000000         0.044872977       200.989339971     -1445.541011146     -1445.496138169         2.216438204
      8759         4472.000000         0.044396162       198.853653403     -1445.540533723     -1445.496137560         2.191992063
      8760         4473.000000         0.043878540       196.535183807     -1445.540014405     -1445.496135865         2.191451146
      8761         4474.000000         0.043348314       194.160265853     -1445.539481997     -1445.496133683         2.194883336
      8762         4475.000000         0.042841456       191.890007549     -1445.538973089     -1445.496131633         2.192620313
      8763         4476.000000         0.044652096       200.000000000     -1445.538523537     -1445.493871441         2.243985719
      8764         4477.000000         0.044261426       198.250157260     -1445.538134048     -1445.493872622         2.326077976
      8765         4478.000000         0.043940587       196.813097400     -1445.537814630     -1445.493874043         2.194181965
      8766         4479.000000         0.043698294       195.727850013     -1445.537571651     -1445.493873357         2.196803387
      8767         4480.000000         0.043537780       195.008893610     -1445.537410438     -1445.493872658         2.196596595
      8768         4481.000000         0.043469030       194.700960451     -1445.537341529     -1445.493872499         2.201865177
      8769         4482.000000         0.043506642       194.869425399     -1445.537379047     -1445.493872405         2.197916809
      8770         4483.000000         0.043659033       195.551994651     -1445.537531162     -1445.493872130         2.203657316
      8771         4484.000000         0.043922838       196.733600329     -1445.537795854     -1445.493873015         2.231083890
      8772         4485.000000         0.044278025       198.324506205     -1445.538153670     -1445.493875645         2.221688742
      8773         4486.000000         0.044685922       200.151507376     -1445.538565449     -1445.493879528         2.194880561
      8774         4487.000000         0.045093557       201.977334168     -1445.538976981     -1445.493883424         2.195884394
      8775         4488.000000         0.045448608       203.567632025     -1445.539334100     -1445.493885493         2.190983569
      8776         4489.000000         0.045715267       204.762017955     -1445.539601203     -1445.493885936         2.219726020
      8777         4490.000000         0.045879667       205.498380682     -1445.539764419     -1445.493884751         2.198353617
      8778         4491.000000         0.045949071       205.809244774     -1445.539831535     -1445.493882464         2.213782868
      8779         4492.000000         0.045945063       205.791291722     -1445.539825262     -1445.493880199         2.219386165
      8780         4493.000000         0.045890826       205.548359855     -1445.539769780     -1445.493878954         2.197155014
      8781         4494.000000         0.045800569       205.144094616     -1445.539679379     -1445.493878810         2.199217796
      8782         4495.000000         0.045677927       204.594769644     -1445.539557093     -1445.493879167         2.203254120
      8783         4496.000000         0.045523157       203.901543005     -1445.539402015     -1445.493878858         2.198760379
      8784         4497.000000         0.045347067       203.112825424     -1445.539223363     -1445.493876296         2.203322070
      8785         4498.000000         0.045183638       202.380814673     -1445.539055541     -1445.493871903         2.193437143
      8786         4499.000000         0.045087523       201.950309835     -1445.538954398     -1445.493866874         2.255303442
      8787         4500.000000         0.045117709       202.085511027     -1445.538980780     -1445.493863072         2.206118292
      8788         4501.000000         0.045316020       202.973760944     -1445.539178100     -1445.493862080         2.202153253
      8789         4502.000000         0.045689810       204.647997045     -1445.539553942     -1445.493864132         2.193439487
      8790         4503.000000         0.046208651       206.971919746     -1445.540076837     -1445.493868186         2.195904432
      8791         4504.000000         0.046815177       209.688595201     -1445.540688115     -1445.493872938         2.198680207
      8792         4505.000000         0.044652096       200.000000000     -1445.541317705     -1445.496665609         2.195278124
      8793         4506.000000         0.045236122       202.615894893     -1445.541903184     -1445.496667062         2.193320181
      8794         4507.000000         0.045769669       205.005688861     -1445.542437935     -1445.496668266         2.235417699
      8795         4508.000000         0.046216401       207.006636470     -1445.542887169     -1445.496670768         2.201940439
      8796         4509.000000         0.046549667       208.499359503     -1445.543222420     -1445.496672752         2.196743173
      8797         4510.000000         0.046743723       209.368546349     -1445.543417194     -1445.496673472         2.190331574
      8798         4511.000000         0.046777220       209.518582380     -1445.543451030     -1445.496673810         2.191096894
      8799         4512.000000         0.046639966       208.903812253     -1445.543313730     -1445.496673764         2.211163120
      8800         4513.000000         0.046335879       207.541783426     -1445.543008730     -1445.496672852         6.494206030
      8801         4514.000000         0.045888059       205.535967533     -1445.542557160     -1445.496669101         2.237133784
      8802         4515.000000         0.045344845       203.102870327     -1445.542009162     -1445.496664317         2.197220558