 DBCSR| CPU Multiplication driver                                           XSMM (U)
 DBCSR| Multrec recursion limit                                              512 (U)
 DBCSR| Multiplication stack size                                           1000 (D)
 DBCSR| Maximum elements for images                                    UNLIMITED (U)
 DBCSR| Multiplicative factor virtual images                                   1 (U)
 DBCSR| Use multiplication densification                                       T (D)
 DBCSR| Multiplication size stacks                                             3 (U)
 DBCSR| Use memory pool for CPU allocation                                     F (U)
 DBCSR| Number of 3D layers                                               SINGLE (U)
 DBCSR| Use MPI memory allocation                                              F (U)
 DBCSR| Use RMA algorithm                                                      F (U)
 DBCSR| Use Communication thread                                               T (U)
 DBCSR| Communication thread load                                             87 (D)
 DBCSR| MPI: My process id                                                     0
 DBCSR| MPI: Number of processes                                             128
 DBCSR| OMP: Current number of threads                                         1
 DBCSR| OMP: Max number of threads                                             1
 DBCSR| Split modifier for TAS multiplication algorithm                  1.0E+00 (U)


  **** **** ******  **  PROGRAM STARTED AT               2025-06-17 06:28:45.304
 ***** ** ***  *** **   PROGRAM STARTED ON                             nid002288
 **    ****   ******    PROGRAM STARTED BY                                cahart
 ***** **    ** ** **   PROGRAM PROCESS ID                                211564
  **** **  *******  **  PROGRAM STARTED IN /mnt/lustre/a2fs-work2/work/e05/e05/c
                                           ahart/postdoc2/work/group/tio2/anatas
                                           e/cell-441/geo-opt/mp-390/hole/from-n
                                           eutral/pbe-u-o/u-7.5-rs-9.0-energy

 CP2K| version string:                                       CP2K version 2024.3
 CP2K| source code revision number:                                  git:6712648
 CP2K| cp2kflags: omp libint fftw3 libxc libgrpp elpa parallel scalapack cosma x
 CP2K|            smm plumed2 spglib mkl sirius libvori libbqb libvdwxc hdf5
 CP2K| is freely available from                            https://www.cp2k.org/
 CP2K| Program compiled at                       Thu 12 Sep 2024 10:20:47 AM BST
 CP2K| Program compiled on                                                  ln04
 CP2K| Program compiled for                                                local
 CP2K| Data directory path    /mnt/lustre/a2fs-work1/work/y07/shared/apps/core/c
 CP2K| Input file name                                                 input.inp

 GLOBAL| Force Environment number                                              1
 GLOBAL| Basis set file name                                        BASIS_MOLOPT
 GLOBAL| Potential file name                                      GTH_POTENTIALS
 GLOBAL| MM Potential file name                                     MM_POTENTIAL
 GLOBAL| Coordinate file name                                         system.xyz
 GLOBAL| Method name                                                        CP2K
 GLOBAL| Project name                                                       tio2
 GLOBAL| Run type                                                         ENERGY
 GLOBAL| FFT library                                                       FFTW3
 GLOBAL| Diagonalization library                                            ELPA
 GLOBAL| DGEMM library                                                      BLAS
 GLOBAL| Minimum number of eigenvectors for ELPA usage                        16
 GLOBAL| Orthonormality check for eigenvectors                          DISABLED
 GLOBAL| Matrix multiplication library                                     COSMA
 GLOBAL| All-to-all communication in single precision                          F
 GLOBAL| FFTs using library dependent lengths                                  F
 GLOBAL| Grid backend                                                       AUTO
 GLOBAL| Global print level                                               MEDIUM
 GLOBAL| MPI I/O enabled                                                       T
 GLOBAL| Total number of message passing processes                           128
 GLOBAL| Number of threads for this process                                    1
 GLOBAL| This output is from process                                           0
 GLOBAL| Stack size for threads created by OpenMP (OMP_STACKSIZE)        default
 GLOBAL| CPU model name                          AMD EPYC 7742 64-Core Processor
 GLOBAL| CPUID                                                              1002

 MEMORY| system memory details [Kb]
 MEMORY|                        rank 0           min           max       average
 MEMORY| MemTotal            263341976     263341976     263341976     263341976
 MEMORY| MemFree             236045772     236045772     236045772     236045772
 MEMORY| Buffers                     0             0             0             0
 MEMORY| Cached                1599840       1599840       1599840       1599840
 MEMORY| Slab                  5180492       5180492       5180492       5180492
 MEMORY| SReclaimable           116744        116744        116744        116744
 MEMORY| MemLikelyFree       237762356     237762356     237762356     237762356


 *** Fundamental physical constants (SI units) ***

 *** Literature: B. J. Mohr and B. N. Taylor,
 ***             CODATA recommended values of the fundamental physical
 ***             constants: 2006, Web Version 5.1
 ***             http://physics.nist.gov/constants

 Speed of light in vacuum [m/s]                             2.99792458000000E+08
 Magnetic constant or permeability of vacuum [N/A**2]       1.25663706143592E-06
 Electric constant or permittivity of vacuum [F/m]          8.85418781762039E-12
 Planck constant (h) [J*s]                                  6.62606896000000E-34
 Planck constant (h-bar) [J*s]                              1.05457162825177E-34
 Elementary charge [C]                                      1.60217648700000E-19
 Electron mass [kg]                                         9.10938215000000E-31
 Electron g factor [ ]                                     -2.00231930436220E+00
 Proton mass [kg]                                           1.67262163700000E-27
 Fine-structure constant                                    7.29735253760000E-03
 Rydberg constant [1/m]                                     1.09737315685270E+07
 Avogadro constant [1/mol]                                  6.02214179000000E+23
 Boltzmann constant [J/K]                                   1.38065040000000E-23
 Atomic mass unit [kg]                                      1.66053878200000E-27
 Bohr radius [m]                                            5.29177208590000E-11

 *** Conversion factors ***

 [u] -> [a.u.]                                              1.82288848426455E+03
 [Angstrom] -> [Bohr] = [a.u.]                              1.88972613288564E+00
 [a.u.] = [Bohr] -> [Angstrom]                              5.29177208590000E-01
 [a.u.] -> [s]                                              2.41888432650478E-17
 [a.u.] -> [fs]                                             2.41888432650478E-02
 [a.u.] -> [J]                                              4.35974393937059E-18
 [a.u.] -> [N]                                              8.23872205491840E-08
 [a.u.] -> [K]                                              3.15774647902944E+05
 [a.u.] -> [kJ/mol]                                         2.62549961709828E+03
 [a.u.] -> [kcal/mol]                                       6.27509468713739E+02
 [a.u.] -> [Pa]                                             2.94210107994716E+13
 [a.u.] -> [bar]                                            2.94210107994716E+08
 [a.u.] -> [atm]                                            2.90362800883016E+08
 [a.u.] -> [eV]                                             2.72113838565563E+01
 [a.u.] -> [Hz]                                             6.57968392072181E+15
 [a.u.] -> [1/cm] (wave numbers)                            2.19474631370540E+05
 [a.u./Bohr**2] -> [1/cm]                                   5.14048714338585E+03
 

 CELL_TOP| Volume [angstrom^3]:                                      2198.132028
 CELL_TOP| Vector a [angstrom    15.120     0.000     0.000   |a| =    15.120000
 CELL_TOP| Vector b [angstrom     0.000    15.120     0.000   |b| =    15.120000
 CELL_TOP| Vector c [angstrom     0.000     0.000     9.615   |c| =     9.615020
 CELL_TOP| Angle (b,c), alpha [degree]:                                90.000000
 CELL_TOP| Angle (a,c), beta  [degree]:                                90.000000
 CELL_TOP| Angle (a,b), gamma [degree]:                                90.000000
 CELL_TOP| Requested initial symmetry:                       MONOCLINIC_GAMMA_AB
 CELL_TOP| Numerically orthorhombic:                                         YES
 CELL_TOP| Periodicity                                                       XYZ

 *** WARNING in atoms_input.F:123 :: Overwriting coordinates. Active    ***
 *** coordinates read from &COORD section. Active coordinates READ from ***
 *** &COORD section                                                     ***


 GENERATE|  Preliminary Number of Bonds generated:                             0
 GENERATE|  Achieved consistency in connectivity generation.

 CELL| Volume [angstrom^3]:                                          2198.132028
 CELL| Vector a [angstrom]:      15.120     0.000     0.000   |a| =    15.120000
 CELL| Vector b [angstrom]:       0.000    15.120     0.000   |b| =    15.120000
 CELL| Vector c [angstrom]:       0.000     0.000     9.615   |c| =     9.615020
 CELL| Angle (b,c), alpha [degree]:                                    90.000000
 CELL| Angle (a,c), beta  [degree]:                                    90.000000
 CELL| Angle (a,b), gamma [degree]:                                    90.000000
 CELL| Requested initial symmetry:                           MONOCLINIC_GAMMA_AB
 CELL| Numerically orthorhombic:                                             YES
 CELL| Periodicity                                                           XYZ

 CELL_REF| Volume [angstrom^3]:                                      2198.132028
 CELL_REF| Vector a [angstrom    15.120     0.000     0.000   |a| =    15.120000
 CELL_REF| Vector b [angstrom     0.000    15.120     0.000   |b| =    15.120000
 CELL_REF| Vector c [angstrom     0.000     0.000     9.615   |c| =     9.615020
 CELL_REF| Angle (b,c), alpha [degree]:                                90.000000
 CELL_REF| Angle (a,c), beta  [degree]:                                90.000000
 CELL_REF| Angle (a,b), gamma [degree]:                                90.000000
 CELL_REF| Requested initial symmetry:                       MONOCLINIC_GAMMA_AB
 CELL_REF| Numerically orthorhombic:                                         YES
 CELL_REF| Periodicity                                                       XYZ

 *******************************************************************************
 *******************************************************************************
 **                                                                           **
 **     #####                         ##              ##                      **
 **    ##   ##            ##          ##              ##                      **
 **   ##     ##                       ##            ######                    **
 **   ##     ##  ##   ##  ##   #####  ##  ##   ####   ##    #####    #####    **
 **   ##     ##  ##   ##  ##  ##      ## ##   ##      ##   ##   ##  ##   ##   **
 **   ##  ## ##  ##   ##  ##  ##      ####     ###    ##   ######   ######    **
 **    ##  ###   ##   ##  ##  ##      ## ##      ##   ##   ##       ##        **
 **     #######   #####   ##   #####  ##  ##  ####    ##    #####   ##        **
 **           ##                                                    ##        **
 **                                                                           **
 **                                                ... make the atoms dance   **
 **                                                                           **
 **            Copyright (C) by CP2K developers group (2000-2024)             **
 **                      J. Chem. Phys. 152, 194103 (2020)                    **
 **                                                                           **
 *******************************************************************************

 DFT| Spin unrestricted (spin-polarized) Kohn-Sham calculation               UKS
 DFT| Multiplicity                                                             2
 DFT| Number of spin states                                                    2
 DFT| Charge                                                                   1
 DFT| Self-interaction correction (SIC)                                       NO
 DFT| Cutoffs: density                                              1.000000E-10
 DFT|          gradient                                             1.000000E-10
 DFT|          tau                                                  1.000000E-10
 DFT|          cutoff_smoothing_range                               0.000000E+00
 DFT| XC density smoothing                                                  NONE
 DFT| XC derivatives                                                          PW

 DFT+U| Method                                                          MULLIKEN
 DFT+U| Check atomic kind information for details

 FUNCTIONAL| PBE:
 FUNCTIONAL| J.P.Perdew, K.Burke, M.Ernzerhof, Phys. Rev. Letter, vol. 77, n 18,
 FUNCTIONAL|  pp. 3865-3868, (1996) {spin polarized}                            


 QS| Method:                                                                 GPW
 QS| Density plane wave grid type                        NON-SPHERICAL FULLSPACE
 QS| Number of grid levels:                                                    4
 QS| Density cutoff [a.u.]:                                                300.0
 QS| Multi grid cutoff [a.u.]: 1) grid level                               300.0
 QS|                           2) grid level                               100.0
 QS|                           3) grid level                                33.3
 QS|                           4) grid level                                11.1
 QS| Grid level progression factor:                                          3.0
 QS| Relative density cutoff [a.u.]:                                        20.0
 QS| Interaction thresholds: eps_pgf_orb:                                1.0E-06
 QS|                         eps_filter_matrix:                          0.0E+00
 QS|                         eps_core_charge:                            1.0E-14
 QS|                         eps_rho_gspace:                             1.0E-12
 QS|                         eps_rho_rspace:                             1.0E-12
 QS|                         eps_gvg_rspace:                             1.0E-06
 QS|                         eps_ppl:                                    1.0E-02
 QS|                         eps_ppnl:                                   1.0E-08


 ATOMIC KIND INFORMATION

  1. Atomic kind: Ti                                    Number of atoms:      64

     Orbital Basis Set                                    DZVP-MOLOPT-SR-GTH-q12

       Number of orbital shell sets:                                           1
       Number of orbital shells:                                               8
       Number of primitive Cartesian functions:                                6
       Number of Cartesian basis functions:                                   31
       Number of spherical basis functions:                                   26
       Norm type:                                                              2

       Normalised Cartesian orbitals:

                        Set   Shell   Orbital            Exponent    Coefficient

                          1       1    2s                7.884570       0.015554
                                                         3.894698       0.963603
                                                         1.513589      -0.631435
                                                         0.596768      -0.343022
                                                         0.222222      -0.006534
                                                         0.077078       0.007652

                          1       2    3s                7.884570      -0.009340
                                                         3.894698       0.212624
                                                         1.513589      -0.258368
                                                         0.596768      -0.226206
                                                         0.222222       0.039438
                                                         0.077078       0.107179

                          1       3    4s                7.884570       0.276563
                                                         3.894698       0.105452
                                                         1.513589       0.085149
                                                         0.596768       0.882541
                                                         0.222222      -0.696223
                                                         0.077078       0.156638

                          1       4    3px               7.884570      -2.034794
                                                         3.894698       0.782008
                                                         1.513589       1.253903
                                                         0.596768       0.347823
                                                         0.222222       0.016778
                                                         0.077078      -0.000433
                          1       4    3py               7.884570      -2.034794
                                                         3.894698       0.782008
                                                         1.513589       1.253903
                                                         0.596768       0.347823
                                                         0.222222       0.016778
                                                         0.077078      -0.000433
                          1       4    3pz               7.884570      -2.034794
                                                         3.894698       0.782008
                                                         1.513589       1.253903
                                                         0.596768       0.347823
                                                         0.222222       0.016778
                                                         0.077078      -0.000433

                          1       5    4px               7.884570       0.376572
                                                         3.894698      -0.182875
                                                         1.513589      -0.474776
                                                         0.596768      -0.081757
                                                         0.222222       0.064432
                                                         0.077078       0.047279
                          1       5    4py               7.884570       0.376572
                                                         3.894698      -0.182875
                                                         1.513589      -0.474776
                                                         0.596768      -0.081757
                                                         0.222222       0.064432
                                                         0.077078       0.047279
                          1       5    4pz               7.884570       0.376572
                                                         3.894698      -0.182875
                                                         1.513589      -0.474776
                                                         0.596768      -0.081757
                                                         0.222222       0.064432
                                                         0.077078       0.047279

                          1       6    4dx2              7.884570       3.047350
                                                         3.894698       3.289529
                                                         1.513589       1.060616
                                                         0.596768       0.249930
                                                         0.222222       0.038806
                                                         0.077078       0.002319
                          1       6    4dxy              7.884570       5.278165
                                                         3.894698       5.697631
                                                         1.513589       1.837041
                                                         0.596768       0.432892
                                                         0.222222       0.067214
                                                         0.077078       0.004017
                          1       6    4dxz              7.884570       5.278165
                                                         3.894698       5.697631
                                                         1.513589       1.837041
                                                         0.596768       0.432892
                                                         0.222222       0.067214
                                                         0.077078       0.004017
                          1       6    4dy2              7.884570       3.047350
                                                         3.894698       3.289529
                                                         1.513589       1.060616
                                                         0.596768       0.249930
                                                         0.222222       0.038806
                                                         0.077078       0.002319
                          1       6    4dyz              7.884570       5.278165
                                                         3.894698       5.697631
                                                         1.513589       1.837041
                                                         0.596768       0.432892
                                                         0.222222       0.067214
                                                         0.077078       0.004017
                          1       6    4dz2              7.884570       3.047350
                                                         3.894698       3.289529
                                                         1.513589       1.060616
                                                         0.596768       0.249930
                                                         0.222222       0.038806
                                                         0.077078       0.002319

                          1       7    5dx2              7.884570      -2.119015
                                                         3.894698      -1.237751
                                                         1.513589      -0.746777
                                                         0.596768      -0.071514
                                                         0.222222       0.004086
                                                         0.077078       0.017595
                          1       7    5dxy              7.884570      -3.670241
                                                         3.894698      -2.143848
                                                         1.513589      -1.293455
                                                         0.596768      -0.123865
                                                         0.222222       0.007077
                                                         0.077078       0.030475
                          1       7    5dxz              7.884570      -3.670241
                                                         3.894698      -2.143848
                                                         1.513589      -1.293455
                                                         0.596768      -0.123865
                                                         0.222222       0.007077
                                                         0.077078       0.030475
                          1       7    5dy2              7.884570      -2.119015
                                                         3.894698      -1.237751
                                                         1.513589      -0.746777
                                                         0.596768      -0.071514
                                                         0.222222       0.004086
                                                         0.077078       0.017595
                          1       7    5dyz              7.884570      -3.670241
                                                         3.894698      -2.143848
                                                         1.513589      -1.293455
                                                         0.596768      -0.123865
                                                         0.222222       0.007077
                                                         0.077078       0.030475
                          1       7    5dz2              7.884570      -2.119015
                                                         3.894698      -1.237751
                                                         1.513589      -0.746777
                                                         0.596768      -0.071514
                                                         0.222222       0.004086
                                                         0.077078       0.017595

                          1       8    5fx3              7.884570      -0.342058
                                                         3.894698       0.375798
                                                         1.513589      -0.706469
                                                         0.596768      -0.229994
                                                         0.222222      -0.012723
                                                         0.077078       0.003932
                          1       8    5fx2y             7.884570      -0.764866
                                                         3.894698       0.840310
                                                         1.513589      -1.579712
                                                         0.596768      -0.514282
                                                         0.222222      -0.028450
                                                         0.077078       0.008792
                          1       8    5fx2z             7.884570      -0.764866
                                                         3.894698       0.840310
                                                         1.513589      -1.579712
                                                         0.596768      -0.514282
                                                         0.222222      -0.028450
                                                         0.077078       0.008792
                          1       8    5fxy2             7.884570      -0.764866
                                                         3.894698       0.840310
                                                         1.513589      -1.579712
                                                         0.596768      -0.514282
                                                         0.222222      -0.028450
                                                         0.077078       0.008792
                          1       8    5fxyz             7.884570      -1.324787
                                                         3.894698       1.455460
                                                         1.513589      -2.736142
                                                         0.596768      -0.890763
                                                         0.222222      -0.049276
                                                         0.077078       0.015229
                          1       8    5fxz2             7.884570      -0.764866
                                                         3.894698       0.840310
                                                         1.513589      -1.579712
                                                         0.596768      -0.514282
                                                         0.222222      -0.028450
                                                         0.077078       0.008792
                          1       8    5fy3              7.884570      -0.342058
                                                         3.894698       0.375798
                                                         1.513589      -0.706469
                                                         0.596768      -0.229994
                                                         0.222222      -0.012723
                                                         0.077078       0.003932
                          1       8    5fy2z             7.884570      -0.764866
                                                         3.894698       0.840310
                                                         1.513589      -1.579712
                                                         0.596768      -0.514282
                                                         0.222222      -0.028450
                                                         0.077078       0.008792
                          1       8    5fyz2             7.884570      -0.764866
                                                         3.894698       0.840310
                                                         1.513589      -1.579712
                                                         0.596768      -0.514282
                                                         0.222222      -0.028450
                                                         0.077078       0.008792
                          1       8    5fz3              7.884570      -0.342058
                                                         3.894698       0.375798
                                                         1.513589      -0.706469
                                                         0.596768      -0.229994
                                                         0.222222      -0.012723
                                                         0.077078       0.003932

       Atomic covalent radius [Angstrom]:                                  1.320

       Atomic van der Waals radius [Angstrom]:                             1.760

     GTH Potential information for                                   GTH-PBE-q12

       Description:                       Goedecker-Teter-Hutter pseudopotential
                                           Goedecker et al., PRB 54, 1703 (1996)
                                          Hartwigsen et al., PRB 58, 3641 (1998)
                                                      Krack, TCA 114, 145 (2005)

       Gaussian exponent of the core charge distribution:               3.462604
       Electronic configuration (s p d ...):                           4   6   2

       Parameters of the local part of the GTH pseudopotential:

                          rloc        C1          C2          C3          C4
                        0.380000    8.711442   -0.700287

       Parameters of the non-local part of the GTH pseudopotential:

                   l      r(l)      h(i,j,l)

                   0    0.337771    2.575264    3.692971
                                    3.692971   -4.767605
                   1    0.242531   -4.630541    8.870875
                                    8.870875  -10.496161
                   2    0.243317   -9.406653

  2. Atomic kind: O                                     Number of atoms:     128

     Orbital Basis Set                                     DZVP-MOLOPT-SR-GTH-q6

       Number of orbital shell sets:                                           1
       Number of orbital shells:                                               5
       Number of primitive Cartesian functions:                                5
       Number of Cartesian basis functions:                                   14
       Number of spherical basis functions:                                   13
       Norm type:                                                              2

       Normalised Cartesian orbitals:

                        Set   Shell   Orbital            Exponent    Coefficient

                          1       1    2s               10.389228       0.396646
                                                         3.849621       0.208811
                                                         1.388401      -0.301641
                                                         0.496955      -0.274061
                                                         0.162492      -0.033677

                          1       2    3s               10.389228       0.303673
                                                         3.849621       0.240943
                                                         1.388401      -0.313066
                                                         0.496955      -0.043055
                                                         0.162492       0.213991

                          1       3    3px              10.389228      -1.530415
                                                         3.849621      -1.371928
                                                         1.388401      -0.761951
                                                         0.496955      -0.253695
                                                         0.162492      -0.035541
                          1       3    3py              10.389228      -1.530415
                                                         3.849621      -1.371928
                                                         1.388401      -0.761951
                                                         0.496955      -0.253695
                                                         0.162492      -0.035541
                          1       3    3pz              10.389228      -1.530415
                                                         3.849621      -1.371928
                                                         1.388401      -0.761951
                                                         0.496955      -0.253695
                                                         0.162492      -0.035541

                          1       4    4px              10.389228      -0.565392
                                                         3.849621      -0.038231
                                                         1.388401      -0.382373
                                                         0.496955       0.179070
                                                         0.162492       0.122714
                          1       4    4py              10.389228      -0.565392
                                                         3.849621      -0.038231
                                                         1.388401      -0.382373
                                                         0.496955       0.179070
                                                         0.162492       0.122714
                          1       4    4pz              10.389228      -0.565392
                                                         3.849621      -0.038231
                                                         1.388401      -0.382373
                                                         0.496955       0.179070
                                                         0.162492       0.122714

                          1       5    4dx2             10.389228       1.867377
                                                         3.849621       0.670994
                                                         1.388401       1.353441
                                                         0.496955       0.273538
                                                         0.162492       0.006620
                          1       5    4dxy             10.389228       3.234392
                                                         3.849621       1.162195
                                                         1.388401       2.344229
                                                         0.496955       0.473781
                                                         0.162492       0.011466
                          1       5    4dxz             10.389228       3.234392
                                                         3.849621       1.162195
                                                         1.388401       2.344229
                                                         0.496955       0.473781
                                                         0.162492       0.011466
                          1       5    4dy2             10.389228       1.867377
                                                         3.849621       0.670994
                                                         1.388401       1.353441
                                                         0.496955       0.273538
                                                         0.162492       0.006620
                          1       5    4dyz             10.389228       3.234392
                                                         3.849621       1.162195
                                                         1.388401       2.344229
                                                         0.496955       0.473781
                                                         0.162492       0.011466
                          1       5    4dz2             10.389228       1.867377
                                                         3.849621       0.670994
                                                         1.388401       1.353441
                                                         0.496955       0.273538
                                                         0.162492       0.006620

       Atomic covalent radius [Angstrom]:                                  0.730

       Atomic van der Waals radius [Angstrom]:                             1.520

     GTH Potential information for                                    GTH-PBE-q6

       Description:                       Goedecker-Teter-Hutter pseudopotential
                                           Goedecker et al., PRB 54, 1703 (1996)
                                          Hartwigsen et al., PRB 58, 3641 (1998)
                                                      Krack, TCA 114, 145 (2005)

       Gaussian exponent of the core charge distribution:               8.360253
       Electronic configuration (s p d ...):                               2   4

       Parameters of the local part of the GTH pseudopotential:

                          rloc        C1          C2          C3          C4
                        0.244554  -16.667215    2.487311

       Parameters of the non-local part of the GTH pseudopotential:

                   l      r(l)      h(i,j,l)

                   0    0.220956   18.337458
                   1    0.211332

     A DFT+U correction is applied to atoms of this atomic kind:
       Angular quantum momentum number L:                                      1
       U(eff) = (U - J) value in [eV]:                                     8.000


 MOLECULE KIND INFORMATION


 All atoms are their own molecule, skipping detailed information


 TOTAL NUMBERS AND MAXIMUM NUMBERS

  Total number of            - Atomic kinds:                                   2
                             - Atoms:                                        192
                             - Shell sets:                                   192
                             - Shells:                                      1152
                             - Primitive Cartesian functions:               1024
                             - Cartesian basis functions:                   3776
                             - Spherical basis functions:                   3328

  Maximum angular momentum of- Orbital basis functions:                        3
                             - Local part of the GTH pseudopotential:          2
                             - Non-local part of the GTH pseudopotential:      3


 MODULE QUICKSTEP: ATOMIC COORDINATES IN ANGSTROM

   Atom Kind Element         X             Y             Z       Z(eff)     Mass
      1    1 Ti   22      0.003888      0.003530      0.002645  12.0000  47.8670
      2    1 Ti   22      1.885334      1.885002      4.808538  12.0000  47.8670
      3    1 Ti   22      0.003697      1.886107      2.398188  12.0000  47.8670
      4    1 Ti   22      1.885583      0.003950      7.220170  12.0000  47.8670
      5    1 Ti   22      0.003939      3.777372      0.000943  12.0000  47.8670
      6    1 Ti   22      1.886143     13.234703      4.802114  12.0000  47.8670
      7    1 Ti   22     11.353447      1.885272      2.404870  12.0000  47.8670
      8    1 Ti   22      5.668450      0.003883      7.220819  12.0000  47.8670
      9    1 Ti   22      1.886064      3.777119      7.217225  12.0000  47.8670
     10    1 Ti   22      0.003593     13.234570      2.406576  12.0000  47.8670
     11    1 Ti   22      5.668662      1.885274      4.805472  12.0000  47.8670
     12    1 Ti   22     11.352307      0.003727     -0.005856  12.0000  47.8670
     13    1 Ti   22      3.777596      0.003764      0.001033  12.0000  47.8670
     14    1 Ti   22     13.234502      1.885633      4.816401  12.0000  47.8670
     15    1 Ti   22     13.234902      0.003903      7.213764  12.0000  47.8670
     16    1 Ti   22      3.776991      1.886237      2.399014  12.0000  47.8670
     17    1 Ti   22      1.885424      5.668634      4.810601  12.0000  47.8670
     18    1 Ti   22      0.003917     11.352826      0.009275  12.0000  47.8670
     19    1 Ti   22      0.003760      5.668539      2.395793  12.0000  47.8670
     20    1 Ti   22      1.884961     11.353131      7.212551  12.0000  47.8670
     21    1 Ti   22      0.003873      7.569853      0.010016  12.0000  47.8670
     22    1 Ti   22      1.886254      9.461355      4.803282  12.0000  47.8670
     23    1 Ti   22      7.569725      1.885352      2.406698  12.0000  47.8670
     24    1 Ti   22      9.460989      0.003888      7.212025  12.0000  47.8670
     25    1 Ti   22      1.885206      7.569635      7.209570  12.0000  47.8670
     26    1 Ti   22      0.003797      9.460761      2.405097  12.0000  47.8670
     27    1 Ti   22      9.461211      1.886137      4.813396  12.0000  47.8670
     28    1 Ti   22      7.569733      0.003784     -0.008349  12.0000  47.8670
     29    1 Ti   22      3.777689      3.777630      0.000474  12.0000  47.8670
     30    1 Ti   22     13.234457     13.234826      4.810102  12.0000  47.8670
     31    1 Ti   22     11.353215      5.668675      2.402040  12.0000  47.8670
     32    1 Ti   22      5.668586     11.353076      7.214265  12.0000  47.8670
     33    1 Ti   22     13.234650      3.777549      7.212504  12.0000  47.8670
     34    1 Ti   22      3.777313     13.234556      2.404672  12.0000  47.8670
     35    1 Ti   22      5.668414      5.668394      4.807858  12.0000  47.8670
     36    1 Ti   22     11.353094     11.353409      0.001002  12.0000  47.8670
     37    1 Ti   22     11.352845     13.234538      2.412506  12.0000  47.8670
     38    1 Ti   22      5.668442      3.777302      7.218951  12.0000  47.8670
     39    1 Ti   22      3.777163     11.352314      0.006221  12.0000  47.8670
     40    1 Ti   22     13.234560      5.668473      4.817389  12.0000  47.8670
     41    1 Ti   22      5.668604     13.234645      4.799320  12.0000  47.8670
     42    1 Ti   22     11.352181      3.777023     -0.004556  12.0000  47.8670
     43    1 Ti   22     13.234791     11.352344      7.205756  12.0000  47.8670
     44    1 Ti   22      3.777248      5.668474      2.396850  12.0000  47.8670
     45    1 Ti   22      3.777340      7.569923      0.007935  12.0000  47.8670
     46    1 Ti   22     13.234478      9.460980      4.808665  12.0000  47.8670
     47    1 Ti   22      7.569972      5.668415      2.404129  12.0000  47.8670
     48    1 Ti   22      9.461365     11.352216      7.206530  12.0000  47.8670
     49    1 Ti   22     13.234714      7.569711      7.203315  12.0000  47.8670
     50    1 Ti   22      3.777579      9.460677      2.404524  12.0000  47.8670
     51    1 Ti   22      9.461041      5.668400      4.815253  12.0000  47.8670
     52    1 Ti   22      7.569682     11.353172     -0.001940  12.0000  47.8670
     53    1 Ti   22     11.352368      9.461246      2.409770  12.0000  47.8670
     54    1 Ti   22      5.668358      7.569909      7.211697  12.0000  47.8670
     55    1 Ti   22      5.668537      9.461118      4.800809  12.0000  47.8670
     56    1 Ti   22     11.353029      7.569718      0.003055  12.0000  47.8670
     57    1 Ti   22      9.460777      3.777673      7.212020  12.0000  47.8670
     58    1 Ti   22      7.569797     13.234598      2.413312  12.0000  47.8670
     59    1 Ti   22      7.569780      3.777268     -0.006924  12.0000  47.8670
     60    1 Ti   22      9.460769     13.234643      4.808332  12.0000  47.8670
     61    1 Ti   22      7.569936      7.569972      0.000377  12.0000  47.8670
     62    1 Ti   22      9.460673      9.460728      4.808044  12.0000  47.8670
     63    1 Ti   22      7.569852      9.461086      2.411467  12.0000  47.8670
     64    1 Ti   22      9.461144      7.569804      7.204422  12.0000  47.8670
     65    2 O     8     -0.001371      0.004754      1.976494   6.0000  15.9994
     66    2 O     8      1.885823      1.884874      6.794726   6.0000  15.9994
     67    2 O     8      0.004695      1.886165      4.376999   6.0000  15.9994
     68    2 O     8      1.885238     -0.001129      9.200526   6.0000  15.9994
     69    2 O     8      1.886297      0.004586      5.242420   6.0000  15.9994
     70    2 O     8     -0.001103      1.885095      0.417532   6.0000  15.9994
     71    2 O     8      1.884733      1.885962      2.822256   6.0000  15.9994
     72    2 O     8      0.004649     -0.001332      7.644988   6.0000  15.9994
     73    2 O     8     -0.001050      3.774713      1.956575   6.0000  15.9994
     74    2 O     8      1.886150     13.233815      6.781000   6.0000  15.9994
     75    2 O     8     11.353623      1.885838      4.391005   6.0000  15.9994
     76    2 O     8      5.679306     -0.000804      9.197825   6.0000  15.9994
     77    2 O     8      1.886207      3.774184      5.257337   6.0000  15.9994
     78    2 O     8     -0.001341     13.233847      0.434109   6.0000  15.9994
     79    2 O     8      5.679273      1.886004      2.823526   6.0000  15.9994
     80    2 O     8     11.353368     -0.001103      7.628619   6.0000  15.9994
     81    2 O     8      3.774517     -0.000973      7.660523   6.0000  15.9994
     82    2 O     8     13.233862      1.886283      2.838714   6.0000  15.9994
     83    2 O     8     13.233761     -0.001375      9.187461   6.0000  15.9994
     84    2 O     8      3.774303      1.886097      4.358917   6.0000  15.9994
     85    2 O     8      1.885967      5.679279      6.792505   6.0000  15.9994
     86    2 O     8     -0.001117     11.353230      1.989514   6.0000  15.9994
     87    2 O     8     -0.000771      5.679234      0.418682   6.0000  15.9994
     88    2 O     8      1.885962     11.353747      5.226394   6.0000  15.9994
     89    2 O     8     -0.000813      7.558989      1.986881   6.0000  15.9994
     90    2 O     8      1.886079      9.464105      6.763048   6.0000  15.9994
     91    2 O     8      7.559004      1.885986      4.388494   6.0000  15.9994
     92    2 O     8      9.463687     -0.001034      9.167448   6.0000  15.9994
     93    2 O     8      1.886005      7.559098      5.227770   6.0000  15.9994
     94    2 O     8     -0.000989      9.463898      0.449771   6.0000  15.9994
     95    2 O     8      9.464266      1.886188      2.853700   6.0000  15.9994
     96    2 O     8      7.559077     -0.000773      7.629679   6.0000  15.9994
     97    2 O     8      3.770778      0.004166      1.978789   6.0000  15.9994
     98    2 O     8     13.239535      1.885241      6.796796   6.0000  15.9994
     99    2 O     8      0.004288      5.650956      4.378742   6.0000  15.9994
    100    2 O     8      1.884858     11.352598      9.198869   6.0000  15.9994
    101    2 O     8     13.239742      0.004654      5.241100   6.0000  15.9994
    102    2 O     8      3.770458      1.885458      0.416633   6.0000  15.9994
    103    2 O     8      1.884921      5.651041      2.822056   6.0000  15.9994
    104    2 O     8      0.004615     11.352152      7.646606   6.0000  15.9994
    105    2 O     8     11.352468      1.884748      0.418479   6.0000  15.9994
    106    2 O     8      5.650997      0.004259      5.238263   6.0000  15.9994
    107    2 O     8      5.650993      1.884971      6.794014   6.0000  15.9994
    108    2 O     8     11.352276      0.004664      1.972992   6.0000  15.9994
    109    2 O     8      1.885525      3.770355      9.199562   6.0000  15.9994
    110    2 O     8      0.004729     13.239770      4.380408   6.0000  15.9994
    111    2 O     8      0.004114      3.770894      7.638630   6.0000  15.9994
    112    2 O     8      1.885123     13.239529      2.821411   6.0000  15.9994
    113    2 O     8      3.770533      3.775089      1.960379   6.0000  15.9994
    114    2 O     8     13.239796     13.233738      6.783828   6.0000  15.9994
    115    2 O     8     11.353512      5.650969      4.390495   6.0000  15.9994
    116    2 O     8      5.679373     11.352447      9.196276   6.0000  15.9994
    117    2 O     8     13.239399      3.774532      5.256956   6.0000  15.9994
    118    2 O     8      3.770918     13.234326      0.427389   6.0000  15.9994
    119    2 O     8      5.678888      5.651318      2.822677   6.0000  15.9994
    120    2 O     8     11.353793     11.352469      7.629735   6.0000  15.9994
    121    2 O     8     11.352125     13.233879      0.434522   6.0000  15.9994
    122    2 O     8      5.651117      3.774600      5.255429   6.0000  15.9994
    123    2 O     8      3.774139     11.352228      7.661334   6.0000  15.9994
    124    2 O     8     13.234240      5.650987      2.835045   6.0000  15.9994
    125    2 O     8      5.650938     13.234244      6.782151   6.0000  15.9994
    126    2 O     8     11.352338      3.774286      1.955432   6.0000  15.9994
    127    2 O     8     13.233781     11.352262      9.184724   6.0000  15.9994
    128    2 O     8      3.774651      5.651126      4.360413   6.0000  15.9994
    129    2 O     8      5.651311      5.678865      6.793028   6.0000  15.9994
    130    2 O     8     11.352601     11.353660      1.987211   6.0000  15.9994
    131    2 O     8     13.234356      3.770800      9.190314   6.0000  15.9994
    132    2 O     8      3.774728     13.239451      4.360361   6.0000  15.9994
    133    2 O     8     11.352423      5.679285      0.420027   6.0000  15.9994
    134    2 O     8      5.651075     11.353553      5.225835   6.0000  15.9994
    135    2 O     8      3.775036      3.770581      7.655675   6.0000  15.9994
    136    2 O     8     13.233832     13.239752      2.837478   6.0000  15.9994
    137    2 O     8     13.239511     11.353346      5.225123   6.0000  15.9994
    138    2 O     8      3.770373      5.678554      0.416759   6.0000  15.9994
    139    2 O     8      5.679182     13.239186      2.822184   6.0000  15.9994
    140    2 O     8     11.353005      3.770466      7.628206   6.0000  15.9994
    141    2 O     8      3.770323     11.352987      1.988500   6.0000  15.9994
    142    2 O     8     13.239225      5.679280      6.794413   6.0000  15.9994
    143    2 O     8     11.353205     13.239540      4.392853   6.0000  15.9994
    144    2 O     8      5.678483      3.770362      9.199006   6.0000  15.9994
    145    2 O     8      3.770344      7.559786      1.987897   6.0000  15.9994
    146    2 O     8     13.239486      9.463706      6.764128   6.0000  15.9994
    147    2 O     8      7.559439      5.651303      4.389161   6.0000  15.9994
    148    2 O     8      9.464123     11.352322      9.166311   6.0000  15.9994
    149    2 O     8     13.239185      7.559069      5.226325   6.0000  15.9994
    150    2 O     8      3.770605      9.463403      0.445049   6.0000  15.9994
    151    2 O     8      9.463872      5.651101      2.851953   6.0000  15.9994
    152    2 O     8      7.559045     11.352432      7.631147   6.0000  15.9994
    153    2 O     8     11.352218      9.464236      0.449976   6.0000  15.9994
    154    2 O     8      5.651327      7.559488      5.226694   6.0000  15.9994
    155    2 O     8      5.651106      9.463806      6.764241   6.0000  15.9994
    156    2 O     8     11.352468      7.559055      1.984975   6.0000  15.9994
    157    2 O     8      9.463307      3.770557      9.171886   6.0000  15.9994
    158    2 O     8      7.559024     13.239208      4.390219   6.0000  15.9994
    159    2 O     8      7.559870      3.770359      7.628144   6.0000  15.9994
    160    2 O     8      9.463890     13.239409      2.852936   6.0000  15.9994
    161    2 O     8      7.587404      0.004267      1.974545   6.0000  15.9994
    162    2 O     8      9.468029      1.885493      6.795847   6.0000  15.9994
    163    2 O     8      0.004141      9.467571      4.383066   6.0000  15.9994
    164    2 O     8      1.884963      7.587403      9.198142   6.0000  15.9994
    165    2 O     8      9.467449      0.004165      5.234550   6.0000  15.9994
    166    2 O     8      7.587307      1.884923      0.418143   6.0000  15.9994
    167    2 O     8      1.885479      9.467889      2.820835   6.0000  15.9994
    168    2 O     8      0.004254      7.587359      7.642625   6.0000  15.9994
    169    2 O     8      7.587248      3.774622      1.956645   6.0000  15.9994
    170    2 O     8      9.467569     13.234327      6.786071   6.0000  15.9994
    171    2 O     8     11.352944      9.468013      4.392134   6.0000  15.9994
    172    2 O     8      5.678922      7.587074      9.196861   6.0000  15.9994
    173    2 O     8      9.467771      3.775043      5.252232   6.0000  15.9994
    174    2 O     8      7.587382     13.234243      0.430788   6.0000  15.9994
    175    2 O     8      5.678452      9.468012      2.820648   6.0000  15.9994
    176    2 O     8     11.353592      7.587312      7.629617   6.0000  15.9994
    177    2 O     8      3.774552      7.587254      7.659506   6.0000  15.9994
    178    2 O     8     13.234364      9.467460      2.831363   6.0000  15.9994
    179    2 O     8     13.234217      7.587413      9.186278   6.0000  15.9994
    180    2 O     8      3.775127      9.467832      4.364727   6.0000  15.9994
    181    2 O     8      9.468023      5.678521      6.795422   6.0000  15.9994
    182    2 O     8      7.587361     11.353541      1.986520   6.0000  15.9994
    183    2 O     8      7.587046      5.678895      0.418985   6.0000  15.9994
    184    2 O     8      9.467902     11.353001      5.224141   6.0000  15.9994
    185    2 O     8      7.587057      7.559488      1.985406   6.0000  15.9994
    186    2 O     8      9.467824      9.463330      6.767850   6.0000  15.9994
    187    2 O     8      7.559830      9.468009      4.391495   6.0000  15.9994
    188    2 O     8      9.463804      7.587263      9.167822   6.0000  15.9994
    189    2 O     8      9.468005      7.559765      5.224365   6.0000  15.9994
    190    2 O     8      7.587281      9.463865      0.448128   6.0000  15.9994
    191    2 O     8      9.463388      9.467796      2.848385   6.0000  15.9994
    192    2 O     8      7.559467      7.587046      7.630364   6.0000  15.9994



 SCF PARAMETERS         Density guess:                                   RESTART
                        --------------------------------------------------------
                        max_scf:                                              40
                        max_scf_history:                                       0
                        max_diis:                                              4
                        --------------------------------------------------------
                        eps_scf:                                        1.00E-06
                        eps_scf_history:                                0.00E+00
                        eps_diis:                                       1.00E-01
                        eps_eigval:                                     1.00E-05
                        --------------------------------------------------------
                        level_shift [a.u.]:                             0.000000
                        --------------------------------------------------------
                        Outer loop SCF in use 
                        No variables optimised in outer loop
                        eps_scf                                         1.00E-06
                        max_scf                                               60
                        No outer loop optimization
                        step_size                                       5.00E-01

 PW_GRID| Information for grid number                                          1
 PW_GRID| Grid distributed over                                   128 processors
 PW_GRID| Real space group dimensions                                   128    1
 PW_GRID| the grid is blocked:                                                NO
 PW_GRID| Cutoff [a.u.]                                                    300.0
 PW_GRID| spherical cutoff:                                                   NO
 PW_GRID|   Bounds   1           -112     112                Points:         225
 PW_GRID|   Bounds   2           -112     112                Points:         225
 PW_GRID|   Bounds   3            -72      71                Points:         144
 PW_GRID| Volume element (a.u.^3)  0.2035E-02     Volume (a.u.^3)     14833.7304
 PW_GRID| Grid span                                                    FULLSPACE
 PW_GRID|   Distribution                         Average         Max         Min
 PW_GRID|   G-Vectors                            56953.1       57150       56925
 PW_GRID|   G-Rays                                 253.1         254         253
 PW_GRID|   Real Space Points                    56953.1       64800       32400

 PW_GRID| Information for grid number                                          2
 PW_GRID| Number of the reference grid                                         1
 PW_GRID| Grid distributed over                                   128 processors
 PW_GRID| Real space group dimensions                                   128    1
 PW_GRID| the grid is blocked:                                                NO
 PW_GRID| Cutoff [a.u.]                                                    100.0
 PW_GRID| spherical cutoff:                                                   NO
 PW_GRID|   Bounds   1            -67      67                Points:         135
 PW_GRID|   Bounds   2            -67      67                Points:         135
 PW_GRID|   Bounds   3            -40      40                Points:          81
 PW_GRID| Volume element (a.u.^3)  0.1005E-01     Volume (a.u.^3)     14833.7304
 PW_GRID| Grid span                                                    FULLSPACE
 PW_GRID|   Distribution                         Average         Max         Min
 PW_GRID|   G-Vectors                            11533.0       12150       10800
 PW_GRID|   G-Rays                                  85.4          90          80
 PW_GRID|   Real Space Points                    11533.0       21870       10935

 PW_GRID| Information for grid number                                          3
 PW_GRID| Number of the reference grid                                         1
 PW_GRID| Grid distributed over                                   128 processors
 PW_GRID| Real space group dimensions                                     8   16
 PW_GRID| the grid is blocked:                                                NO
 PW_GRID| Cutoff [a.u.]                                                     33.3
 PW_GRID| spherical cutoff:                                                   NO
 PW_GRID|   Bounds   1            -37      37                Points:          75
 PW_GRID|   Bounds   2            -37      37                Points:          75
 PW_GRID|   Bounds   3            -24      23                Points:          48
 PW_GRID| Volume element (a.u.^3)  0.5494E-01     Volume (a.u.^3)     14833.7304
 PW_GRID| Grid span                                                    FULLSPACE
 PW_GRID|   Distribution                         Average         Max         Min
 PW_GRID|   G-Vectors                             2109.4        2475        1725
 PW_GRID|   G-Rays                                  28.1          33          23
 PW_GRID|   Real Space Points                     2109.4        2400        1728

 PW_GRID| Information for grid number                                          4
 PW_GRID| Number of the reference grid                                         1
 PW_GRID| Grid distributed over                                   128 processors
 PW_GRID| Real space group dimensions                                     8   16
 PW_GRID| the grid is blocked:                                                NO
 PW_GRID| Cutoff [a.u.]                                                     11.1
 PW_GRID| spherical cutoff:                                                   NO
 PW_GRID|   Bounds   1            -22      22                Points:          45
 PW_GRID|   Bounds   2            -22      22                Points:          45
 PW_GRID|   Bounds   3            -13      13                Points:          27
 PW_GRID| Volume element (a.u.^3)  0.2713         Volume (a.u.^3)     14833.7304
 PW_GRID| Grid span                                                    FULLSPACE
 PW_GRID|   Distribution                         Average         Max         Min
 PW_GRID|   G-Vectors                              427.1         585         270
 PW_GRID|   G-Rays                                   9.5          13           6
 PW_GRID|   Real Space Points                      427.1         486         270

 POISSON| Solver                                                        PERIODIC
 POISSON| Periodicity                                                        XYZ

 RS_GRID| Information for grid number                                          1
 RS_GRID|   Bounds   1           -112     112                Points:         225
 RS_GRID|   Bounds   2           -112     112                Points:         225
 RS_GRID|   Bounds   3            -72      71                Points:         144
 RS_GRID| Real space distribution over                                  8 groups
 RS_GRID| Real space distribution along direction                              1
 RS_GRID| Border size                                                         26
 RS_GRID| Real space distribution over                                 16 groups
 RS_GRID| Real space distribution along direction                              2
 RS_GRID| Border size                                                         26
 RS_GRID|   Distribution                         Average         Max         Min
 RS_GRID|   Planes                                  80.1          81          80
 RS_GRID|   Distribution                         Average         Max         Min
 RS_GRID|   Planes                                  66.1          67          66

 RS_GRID| Information for grid number                                          2
 RS_GRID|   Bounds   1            -67      67                Points:         135
 RS_GRID|   Bounds   2            -67      67                Points:         135
 RS_GRID|   Bounds   3            -40      40                Points:          81
 RS_GRID| Real space distribution over                                  8 groups
 RS_GRID| Real space distribution along direction                              1
 RS_GRID| Border size                                                         24
 RS_GRID| Real space distribution over                                 16 groups
 RS_GRID| Real space distribution along direction                              2
 RS_GRID| Border size                                                         24
 RS_GRID|   Distribution                         Average         Max         Min
 RS_GRID|   Planes                                  64.9          65          64
 RS_GRID|   Distribution                         Average         Max         Min
 RS_GRID|   Planes                                  56.4          57          56

 RS_GRID| Information for grid number                                          3
 RS_GRID|   Bounds   1            -37      37                Points:          75
 RS_GRID|   Bounds   2            -37      37                Points:          75
 RS_GRID|   Bounds   3            -24      23                Points:          48
 RS_GRID| Real space fully replicated
 RS_GRID| Group size                                                           1

 RS_GRID| Information for grid number                                          4
 RS_GRID|   Bounds   1            -22      22                Points:          45
 RS_GRID|   Bounds   2            -22      22                Points:          45
 RS_GRID|   Bounds   3            -13      13                Points:          27
 RS_GRID| Real space fully replicated
 RS_GRID| Group size                                                           1

 Spin 1

 Number of electrons:                                                        768
 Number of occupied orbitals:                                                768
 Number of molecular orbitals:                                               768

 Spin 2

 Number of electrons:                                                        767
 Number of occupied orbitals:                                                767
 Number of molecular orbitals:                                               767

 Number of orbital functions:                                               3328
 Number of independent orbital functions:                                   3328

 Extrapolation method: initial_guess

 *** WARNING in qs_initial_guess.F:306 :: User requested to restart the    ***
 *** wavefunction from the file named: tio2-RESTART.wfn. This file does    ***
 *** not exist. Please check the existence of the file or change properly  ***
 *** the value of the keyword WFN_RESTART_FILE_NAME. Calculation continues ***
 *** using ATOMIC GUESS.                                                   ***


 Atomic guess: The first density matrix is obtained in terms of atomic orbitals
               and electronic configurations assigned to each atomic kind

 Guess for atomic kind: Ti

 Electronic structure
    Total number of core electrons                                         10.00
    Total number of valence electrons                                      12.00
    Total number of electrons                                              22.00
    Multiplicity                                                   not specified
    S   [  2.00  2.00] 2.00  2.00
    P   [  6.00] 6.00
    D      2.00


 *******************************************************************************
                  Iteration          Convergence                     Energy [au]
 *******************************************************************************
                          1         2.59099                     -56.573945749309
                          2        0.737518                     -57.461623245624
                          3        0.123244E-01                 -57.676656834797
                          4        0.338536E-02                 -57.676690535970
                          5        0.252157E-03                 -57.676697146183
                          6        0.162704E-05                 -57.676697160103
                          7        0.846593E-06                 -57.676697160104

 Energy components [Hartree]           Total Energy ::          -57.676697160104
                                        Band Energy ::          -13.440549799540
                                     Kinetic Energy ::           25.008468428381
                                   Potential Energy ::          -82.685165588485
                                      Virial (-V/T) ::            3.306286661467
                                        Core Energy ::          -97.155838374470
                                          XC Energy ::           -6.919409696495
                                     Coulomb Energy ::           46.398550910862
                       Total Pseudopotential Energy ::         -122.259340742080
                       Local Pseudopotential Energy ::         -118.928992669456
                    Nonlocal Pseudopotential Energy ::           -3.330348072625
                                        Confinement ::            0.950339392289

 Orbital energies  State     L     Occupation   Energy[a.u.]          Energy[eV]

                       1     0          2.000      -2.312566          -62.928123
                       2     0          2.000      -0.123060           -3.348633

                       1     1          6.000      -1.385567          -37.703193

                       1     2          2.000      -0.127948           -3.481643


 Total Electron Density at R=0:                                         0.004726

 Guess for atomic kind: O

 Electronic structure
    Total number of core electrons                                          2.00
    Total number of valence electrons                                       6.00
    Total number of electrons                                               8.00
    Multiplicity                                                   not specified
    S   [  2.00] 2.00
    P      4.00


 *******************************************************************************
                  Iteration          Convergence                     Energy [au]
 *******************************************************************************
                          1        0.702811                     -15.577904332270
                          2        0.612408                     -15.588447180504
                          3        0.955344E-02                 -15.655871208406
                          4        0.223754E-02                 -15.655885053552
                          5        0.157183E-02                 -15.655885461027
                          6        0.124953E-02                 -15.655885607150
                          7        0.312011E-06                 -15.655885858066

 Energy components [Hartree]           Total Energy ::          -15.655885858066
                                        Band Energy ::           -2.983128125584
                                     Kinetic Energy ::           11.754765134683
                                   Potential Energy ::          -27.410650992749
                                      Virial (-V/T) ::            2.331875684345
                                        Core Energy ::          -26.153522949072
                                          XC Energy ::           -3.157392363346
                                     Coulomb Energy ::           13.655029454351
                       Total Pseudopotential Energy ::          -37.943026860963
                       Local Pseudopotential Energy ::          -39.220419683052
                    Nonlocal Pseudopotential Energy ::            1.277392822089
                                        Confinement ::            0.347387772086

 Orbital energies  State     L     Occupation   Energy[a.u.]          Energy[eV]

                       1     0          2.000      -0.861522          -23.443215

                       1     1          4.000      -0.315021           -8.572154


 Total Electron Density at R=0:                                         0.000093

 Spin 1
 Re-scaling the density matrix to get the right number of electrons for spin 1
                  # Electrons              Trace(P)               Scaling factor
                          768               768.001                        1.000

 Spin 2
 Re-scaling the density matrix to get the right number of electrons for spin 2
                  # Electrons              Trace(P)               Scaling factor
                          767               768.001                        0.999


 SCF WAVEFUNCTION OPTIMIZATION

  ----------------------------------- OT ---------------------------------------
  Minimizer      : DIIS                : direct inversion
                                         in the iterative subspace
                                         using   7 DIIS vectors
                                         safer DIIS on
  Preconditioner : FULL_SINGLE_INVERSE : inversion of 
                                         H + eS - 2*(Sc)(c^T*H*c+const)(Sc)^T
  Precond_solver : DEFAULT
  stepsize       :    0.08000000                  energy_gap     :    0.08000000
  eps_taylor     :   0.10000E-15                  max_taylor     :             4
  ----------------------------------- OT ---------------------------------------

  Step     Update method      Time    Convergence         Total energy    Change
  ------------------------------------------------------------------------------
     1 OT DIIS     0.80E-01    2.4     0.00996606     -5646.3957302921 -5.65E+03
     2 OT DIIS     0.80E-01    1.5     0.00722698     -5680.8250063443 -3.44E+01
     3 OT DIIS     0.80E-01    1.5     0.00465370     -5712.9680027432 -3.21E+01
     4 OT DIIS     0.80E-01    1.5     0.00367721     -5723.4806680802 -1.05E+01
     5 OT DIIS     0.80E-01    1.5     0.00267485     -5734.7356838676 -1.13E+01
     6 OT DIIS     0.80E-01    1.5     0.00219446     -5741.5965609020 -6.86E+00
     7 OT DIIS     0.80E-01    1.5     0.00185328     -5747.4375187452 -5.84E+00
     8 OT DIIS     0.80E-01    1.5     0.00148298     -5753.1749160968 -5.74E+00
     9 OT DIIS     0.80E-01    1.5     0.00126873     -5756.7993602112 -3.62E+00
    10 OT DIIS     0.80E-01    1.5     0.00099119     -5759.9831115594 -3.18E+00
    11 OT DIIS     0.80E-01    1.5     0.00090360     -5760.7884057770 -8.05E-01
    12 OT DIIS     0.80E-01    1.5     0.00073685     -5762.4950776385 -1.71E+00
    13 OT DIIS     0.80E-01    1.5     0.00059632     -5763.8712575747 -1.38E+00
    14 OT DIIS     0.80E-01    1.5     0.00049299     -5764.7694557048 -8.98E-01
    15 OT DIIS     0.80E-01    1.5     0.00043784     -5765.2422604182 -4.73E-01
    16 OT DIIS     0.80E-01    1.5     0.00037600     -5765.6964455493 -4.54E-01
    17 OT DIIS     0.80E-01    1.5     0.00033628     -5765.9909115422 -2.94E-01
    18 OT DIIS     0.80E-01    1.5     0.00029259     -5766.2910122527 -3.00E-01
    19 OT DIIS     0.80E-01    1.4     0.00026237     -5766.4608413428 -1.70E-01
    20 OT DIIS     0.80E-01    1.5     0.00024959     -5766.5514832006 -9.06E-02
    21 OT DIIS     0.80E-01    1.5     0.00022354     -5766.7451748986 -1.94E-01
    22 OT DIIS     0.80E-01    1.4     0.00019967     -5766.8920994476 -1.47E-01
    23 OT DIIS     0.80E-01    1.5     0.00018495     -5766.9918284303 -9.97E-02
    24 OT DIIS     0.80E-01    1.5     0.00016735     -5767.0691378752 -7.73E-02
    25 OT DIIS     0.80E-01    1.5     0.00016115     -5767.1247264253 -5.56E-02
    26 OT DIIS     0.80E-01    1.5     0.00014959     -5767.1779491483 -5.32E-02
    27 OT DIIS     0.80E-01    1.4     0.00014438     -5767.2408806418 -6.29E-02
    28 OT DIIS     0.80E-01    1.5     0.00014223     -5767.2506693253 -9.79E-03
    29 OT SD       0.80E-01    1.5     0.00014608     -5767.2728396533 -2.22E-02
    30 OT DIIS     0.80E-01    1.5     0.00014129     -5767.2813970377 -8.56E-03
    31 OT DIIS     0.80E-01    1.4     0.00013117     -5767.3126610366 -3.13E-02
    32 OT DIIS     0.80E-01    1.5     0.00012555     -5767.3538486985 -4.12E-02
    33 OT DIIS     0.80E-01    1.4     0.00011689     -5767.4060663342 -5.22E-02
    34 OT DIIS     0.80E-01    1.4     0.00011524     -5767.4204144148 -1.43E-02
    35 OT DIIS     0.80E-01    1.5     0.00011358     -5767.4366712128 -1.63E-02
    36 OT DIIS     0.80E-01    1.5     0.00010838     -5767.4832583098 -4.66E-02
    37 OT DIIS     0.80E-01    1.5     0.00010539     -5767.5097258933 -2.65E-02
    38 OT DIIS     0.80E-01    1.5     0.00010417     -5767.5318087008 -2.21E-02
    39 OT DIIS     0.80E-01    1.5     0.00010262     -5767.5408584067 -9.05E-03
    40 OT DIIS     0.80E-01    1.4     0.00009977     -5767.5729875916 -3.21E-02

  Leaving inner SCF loop after reaching    40 steps.


  Electronic density on regular grids:      -1534.9999999999        0.0000000001
  Core density on regular grids:             1535.9999999995       -0.0000000005
  Total charge density on r-space grids:        0.9999999996
  Total charge density g-space grids:           0.9999999996

  Overlap energy of the core charge distribution:               0.00000000000313
  Self energy of the core charge distribution:             -12156.89556134359555
  Core Hamiltonian energy:                                   3316.50880711724130
  Hartree energy:                                            3985.28015289695668
  Exchange-correlation energy:                               -931.59840575859005

  DFT+U energy:                                                19.13201949642090

  Total energy:                                             -5767.57298759156311

  outer SCF iter =    1 RMS gradient =   0.10E-03 energy =      -5767.5729875916

  ----------------------------------- OT ---------------------------------------
  Minimizer      : DIIS                : direct inversion
                                         in the iterative subspace
                                         using   7 DIIS vectors
                                         safer DIIS on
  Preconditioner : FULL_SINGLE_INVERSE : inversion of 
                                         H + eS - 2*(Sc)(c^T*H*c+const)(Sc)^T
  Precond_solver : DEFAULT
  stepsize       :    0.08000000                  energy_gap     :    0.08000000
  eps_taylor     :   0.10000E-15                  max_taylor     :             4
  ----------------------------------- OT ---------------------------------------

[...]
 flops    96 x    63 x   208         499892649984       0.0%    100.0%      0.0%     
 flops    95 x    64 x   208         502537584640       0.0%    100.0%      0.0%     
 flops    13 x    13 x    32         635993260032       0.0%    100.0%      0.0%     
 flops   416 x    63 x   208         639149801472       0.0%    100.0%      0.0%     
 flops    26 x    13 x    32         650712711168       0.0%    100.0%      0.0%     
 flops    13 x    26 x    32         650712711168       0.0%    100.0%      0.0%     
 flops    26 x    26 x    32         660880097280       0.0%    100.0%      0.0%     
 flops    96 x    32 x    32         739422240768       0.0%    100.0%      0.0%     
 flops    13 x    13 x    64        1192487362560       0.0%    100.0%      0.0%     
 flops    26 x    13 x    64        1220086333440       0.0%    100.0%      0.0%     
 flops    13 x    26 x    64        1220086333440       0.0%    100.0%      0.0%     
 flops    26 x    26 x    64        1239150182400       0.0%    100.0%      0.0%     
 flops    96 x    64 x    32        1393846910976       0.0%    100.0%      0.0%     
 flops    96 x    32 x    64        1393846910976       0.0%    100.0%      0.0%     
 flops   416 x    32 x    32        1924548001792       0.0%    100.0%      0.0%     
 flops    96 x    64 x    64        2638948073472       0.0%    100.0%      0.0%     
 flops   416 x    64 x    32        3608527503360       0.0%    100.0%      0.0%     
 flops   416 x    32 x    64        3608527503360       0.0%    100.0%      0.0%     
 flops    96 x    32 x   208        4357427822592       0.0%    100.0%      0.0%     
 flops   416 x    32 x   208        5215625412608       0.0%    100.0%      0.0%     
 flops   416 x    64 x    64        6796060131328       0.0%    100.0%      0.0%     
 flops    13 x    32 x    13        7628740427776       0.0%    100.0%      0.0%     
 flops    26 x    32 x    26        7874828828672       0.0%    100.0%      0.0%     
 flops    26 x    32 x    13        7874828828672       0.0%    100.0%      0.0%     
 flops    13 x    32 x    26        7874828828672       0.0%    100.0%      0.0%     
 flops    96 x    64 x   208        8207600713728       0.0%    100.0%      0.0%     
 flops   416 x    64 x   208        9784791138304       0.0%    100.0%      0.0%     
 flops inhomo. stacks                     2810220     100.0%      0.0%      0.0%
 flops total                        93.787616E+12       0.0%    100.0%      0.0%
 flops max/rank                    964.612855E+09       0.0%    100.0%      0.0%
 matmuls inhomo. stacks                      4070     100.0%      0.0%      0.0%
 matmuls total                         1965825798       0.0%    100.0%      0.0%
 number of processed stacks              58033190       0.0%    100.0%      0.0%
 average stack size                                     1.0      33.9       0.0
 marketing flops                   102.092925E+12
 -------------------------------------------------------------------------------
 # multiplications                          21597
 max memory usage/rank             350.990336E+06
 # max total images/rank                        2
 # max 3D layers                                1
 # MPI messages exchanged                80168064
 MPI messages size (bytes):
  total size                         8.987374E+12
  min size                           0.000000E+00
  max size                         692.224000E+03
  average size                     112.106664E+03
 MPI breakdown and total messages size (bytes):
             size <=      128             6149456                   146000
       128 < size <=     8192             5707888              45436071424
      8192 < size <=    32768            24071040             545912826912
     32768 < size <=   131072            25912320            1974716930640
    131072 < size <=  4194304            18327360            6420895303680
   4194304 < size <= 16777216                   0                        0
  16777216 < size                               0                        0
 -------------------------------------------------------------------------------

 *** WARNING in dbcsr_mm.F:301 :: Using a non-square number of MPI ranks ***
 *** might lead to poor performance. Used ranks: 128 Suggested: 121 256  ***

 -------------------------------------------------------------------------------
 -                                                                             -
 -                      DBCSR MESSAGE PASSING PERFORMANCE                      -
 -                                                                             -
 -------------------------------------------------------------------------------
 ROUTINE             CALLS      AVE VOLUME [Bytes]
 MP_Bcast               97                     12.
 MP_Allreduce       115354                     12.
 MP_Alltoall         67646                  27318.
 MP_ISend          1359116                  56051.
 MP_IRecv          1358568                  55297.
 -------------------------------------------------------------------------------

 -------------------------------------------------------------------------------
 -                                                                             -
 -                                DBM STATISTICS                               -
 -                                                                             -
 -------------------------------------------------------------------------------
    M  x    N  x    K                                          COUNT     PERCENT
 -------------------------------------------------------------------------------

 -------------------------------------------------------------------------------
 -                                                                             -
 -                                GRID STATISTICS                              -
 -                                                                             -
 -------------------------------------------------------------------------------
 LP    KERNEL             BACKEND                              COUNT     PERCENT
 5     collocate ortho    CPU                              140357106      25.44%
 5     integrate ortho    CPU                              140043108      25.38%
 6     collocate ortho    CPU                               71670192      12.99%
 6     integrate ortho    CPU                               71509856      12.96%
 4     collocate ortho    CPU                               63842328      11.57%
 4     integrate ortho    CPU                               63699504      11.55%
 0     integrate general  CPU                                 393216       0.07%
 0     collocate general  CPU                                 221184       0.04%
 2     collocate ortho    CPU                                   2560       0.00%
 3     collocate ortho    CPU                                   1536       0.00%
 -------------------------------------------------------------------------------

 MEMORY| Estimated peak process memory [MiB]                                 335

 -------------------------------------------------------------------------------
 ----                             MULTIGRID INFO                            ----
 -------------------------------------------------------------------------------
 count for grid        1:        1287120          cutoff [a.u.]          300.00
 count for grid        2:         980874          cutoff [a.u.]          100.00
 count for grid        3:         793985          cutoff [a.u.]           33.33
 count for grid        4:         536964          cutoff [a.u.]           11.11
 total gridlevel count  :        3598943

 -------------------------------------------------------------------------------
 -                                                                             -
 -                         MESSAGE PASSING PERFORMANCE                         -
 -                                                                             -
 -------------------------------------------------------------------------------

 ROUTINE             CALLS      AVE VOLUME [Bytes]
 MP_Group                4
 MP_Bcast            30357                   5914.
 MP_Allreduce        79435                    405.
 MP_Sync              4147
 MP_Alltoall         18341                2362249.
 MP_SendRecv        228092                  11544.
 MP_ISendRecv       226568                  11544.
 MP_Wait            334072
 MP_comm_split         563
 MP_ISend           195228                  77521.
 MP_IRecv           195168                  77545.
 MP_Write_All            6                 355816.
 -------------------------------------------------------------------------------


 -------------------------------------------------------------------------------
 -                                                                             -
 -                           R E F E R E N C E S                               -
 -                                                                             -
 -------------------------------------------------------------------------------
 
 CP2K version 2024.3, the CP2K developers group (2024).
 CP2K is freely available from https://www.cp2k.org/ .
 
 T. D. Kuehne, M. Iannuzzi, M. Del Ben, V. V. Rybkin, P. Seewald, F. Stein, T. 
 Laino, R. Z. Khaliullin, O. Schuett, F. Schiffmann, D. Golze, J. Wilhelm, S. 
 Chulkov, M. H. Bani-Hashemian, V. Weber, U. Borstnik, M. Taillefumier, A. S. 
 Jakobovits, A. Lazzaro, H. Pabst, T. Mueller, R. Schade, M. Guidon, S. 
 Andermatt, N. Holmberg, G. K. Schenter, A. Hehn, A. Bussy, F. Belleflamme, G. 
 Tabacchi, A. Gloess, M. Lass, I. Bethune, C. J. Mundy, C. Plessl, M. Watkins, 
 J. VandeVondele, M. Krack, J. Hutter.
 J. Chem. Phys. 152, 194103 (2020).
 CP2K: An electronic structure and molecular dynamics software package - 
 Quickstep: Efficient and accurate electronic structure calculations.
 https://doi.org/10.1063/5.0007045

 O. Schuett, P. Messmer, J. Hutter, J. VandeVondele.
 Electronic Structure Calculations on Graphics Processing Units, 173-190 (2016).
 GPU-Accelerated Sparse Matrix-Matrix Multiplication for Linear Scaling Density 
 Functional Theory.
 https://doi.org/10.1002/9781118670712.ch8

 A. Heinecke, G. Henry, M. Hutchinson, H. Pabst.
 Proceedings of Intl. Supercomputing Conference, 981-991 (2016).
 LIBXSMM: Accelerating Small Matrix Multiplications by Runtime Code Generation.
 https://doi.org/10.1109/SC.2016.83

 J. Hutter, M. Iannuzzi, F. Schiffmann, J. VandeVondele.
 WIREs Comput Mol Sci. 4, 15-25 (2014).
 CP2K: atomistic simulations of condensed matter systems.
 https://doi.org/10.1002/wcms.1159

 U. Borstnik, J. VandeVondele, V. Weber, J. Hutter.
 Parallel Comput. 40, 47-58 (2014).
 Sparse matrix multiplication: The distributed block-compressed sparse row 
 library.
 https://doi.org/10.1016/j.parco.2014.03.012

 A. Marek, V. Blum, R. Johanni, V. Havu, B. Lang, T. Auckenthaler, A. Heinecke, 
 H. Bungartz, H. Lederer.
 J. Phys. Condens. Matter 26, 213201 (2014).
 The ELPA library: scalable parallel eigenvalue solutions for electronic 
 structure theory and computational science.
 https://doi.org/10.1088/0953-8984/26/21/213201

 J. VandeVondele, J. Hutter.
 J. Chem. Phys. 127, 114105 (2007).
 Gaussian basis sets for accurate calculations on molecular systems in gas and 
 condensed phases.
 https://doi.org/10.1063/1.2770708

 J. VandeVondele, M. Krack, F. Mohamed, M. Parrinello, T. Chassaing, J. Hutter.
 Comput. Phys. Commun. 167, 103-128 (2005).
 QUICKSTEP: Fast and accurate density functional calculations using a mixed 
 Gaussian and plane waves approach.
 https://doi.org/10.1016/j.cpc.2004.12.014

 M. Krack.
 Theor. Chem. Acc. 114, 145-152 (2005).
 Pseudopotentials for H to Kr optimized for gradient-corrected 
 exchange-correlation functionals.
 https://doi.org/10.1007/s00214-005-0655-y

 M. Frigo, S. G. Johnson.
 Proc. IEEE 93, 216-231 (2005).
 The design and implementation of FFTW3.
 https://doi.org/10.1109/JPROC.2004.840301

 J. VandeVondele, J. Hutter.
 J. Chem. Phys. 118, 4365-4369 (2003).
 An efficient orbital transformation method for electronic structure 
 calculations.
 https://doi.org/10.1063/1.1543154

 C. Hartwigsen, S. Goedecker, J. Hutter.
 Phys. Rev. B 58, 3641-3662 (1998).
 Relativistic separable dual-space Gaussian pseudopotentials from H to Rn.
 https://doi.org/10.1103/PhysRevB.58.3641

 S. L. Dudarev, G. A. Botton, S. Y. Savrasov, C. J. Humphreys, A. P. Sutton.
 Phys. Rev. B 57, 1505-1509 (1998).
 Electron-energy-loss spectra and the structural stability of nickel oxide: An 
 LSDA+U study.
 https://doi.org/10.1103/PhysRevB.57.1505

 G. Lippert, J. Hutter, M. Parrinello.
 Mol. Phys. 92, 477-487 (1997).
 A hybrid Gaussian and plane wave density functional scheme.
 https://doi.org/10.1080/002689797170220

 S. L. Dudarev, D. N. Manh, A. P. Sutton.
 Philos. Mag. B 75, 613-628 (1997).
 Effect of Mott-Hubbard correlations on the electronic structure and structural 
 stability of uranium dioxide.
 https://doi.org/10.1080/13642819708202343

 S. Goedecker, M. Teter, J. Hutter.
 Phys. Rev. B 54, 1703-1710 (1996).
 Separable dual-space Gaussian pseudopotentials.
 https://doi.org/10.1103/PhysRevB.54.1703

 J. P. Perdew, K. Burke, M. Ernzerhof.
 Phys. Rev. Lett. 77, 3865-3868 (1996).
 Generalized gradient approximation made simple.
 https://doi.org/10.1103/PhysRevLett.77.3865


 -------------------------------------------------------------------------------
 -                                                                             -
 -                                T I M I N G                                  -
 -                                                                             -
 -------------------------------------------------------------------------------
 SUBROUTINE                       CALLS  ASD         SELF TIME        TOTAL TIME
                                MAXIMUM       AVERAGE  MAXIMUM  AVERAGE  MAXIMUM
 CP2K                                 1  1.0    0.173    0.186  653.550  653.555
 qs_energies                          1  2.0    0.005    0.009  652.487  652.495
 scf_env_do_scf                       1  3.0    0.004    0.008  640.329  640.331
 scf_env_do_scf_inner_loop          446  4.0    0.028    1.514  623.740  624.109
 qs_ks_update_qs_env                458  5.0    0.007    0.011  316.845  317.657
 rebuild_ks_matrix                  446  6.0    0.003    0.004  314.830  315.629
 qs_ks_build_kohn_sham_matrix       446  7.0    0.086    0.100  314.827  315.625
 sum_up_and_integrate               446  8.0    0.019    0.028  198.115  198.213
 integrate_v_rspace                 892  9.0    0.036    0.054  197.571  197.858
 qs_rho_update_rho_low              447  5.0    0.007    0.009  182.631  182.671
 calculate_rho_elec                 894  6.0    0.332    0.378  182.623  182.664
 grid_integrate_task_list           892 10.0  142.539  148.804  142.539  148.804
 grid_collocate_task_list           894  7.0  132.188  137.092  132.188  137.092
 qs_scf_new_mos                     446  5.0    0.003    0.004  131.756  132.898
 qs_scf_loop_do_ot                  446  6.0    0.003    0.005  131.753  132.895
 dbcsr_multiply_generic           21597  9.9    0.822    0.864  125.460  129.685
 ot_scf_mini                        446  7.0    0.016    0.019  122.036  122.845
 fft_wrap_pw1pw2                  14749 10.4    0.291    0.339   97.229  109.387
 fft_wrap_pw1pw2_300               9379 11.9    3.717    4.069   90.423  102.549
 multiply_cannon                  21597 10.9    2.199    2.463   85.305   98.840
 qs_vxc_create                      446  8.0    0.012    0.016   93.592   94.318
 xc_vxc_pw_create                   446  9.0    1.712    2.154   93.580   94.309
 fft3d_ps                         14749 12.4   29.173   31.895   76.407   90.675
 multiply_cannon_loop             21597 11.9    1.631    1.710   77.294   90.397
 xc_pw_derive                      5352 11.0    0.047    0.054   63.230   74.223
 ot_mini                            586  7.5    0.014    0.018   68.512   69.505
 multiply_cannon_multrec         345552 12.9   41.106   61.796   41.183   61.874
 mp_alltoall_z22v                 14749 14.4   39.231   61.399   39.231   61.399
 mp_waitall_1                   2666928 13.9   34.951   53.148   34.951   53.148
 xc_rho_set_and_dset_create         446 10.0    1.533    2.430   48.650   51.401
 density_rs2pw                      894  7.0    0.048    0.054   45.741   50.758
 xc_pw_divergence                   892 10.0    0.021    0.024   41.739   50.381
 qs_ot_get_derivative               963  8.9    0.007    0.008   49.466   50.072
 potential_pw2rs                    892 10.0    0.064    0.075   45.175   45.504
 multiply_cannon_metrocomm3      345552 12.9    0.855    0.901   23.713   45.408
 yz_to_x                           5365 13.5    2.300    3.195   22.376   37.003
 qs_ot_get_p                       1060  7.7    0.008    0.010   34.569   36.613
 transfer_pw2rs                    3570 11.0    0.049    0.060   32.942   33.105
 transfer_rs2pw                    3594  8.0    0.056    0.072   25.867   30.626
 mp_waitany                       86008 11.5   21.477   28.901   21.477   28.901
 x_to_yz                           5804 13.8    3.802    5.019   22.708   28.796
 make_m2s                         43194 10.9    0.629    0.697   23.846   25.027
 transfer_pw2rs_300                 894 12.0   11.457   12.061   22.836   24.035
 qs_ot_p2m_diag                     559  8.5    0.184    0.243   21.785   21.916
 transfer_rs2pw_300                 900  9.0    6.595    8.777   16.422   21.850
 make_images                      43194 11.9    1.189    1.278   19.097   20.083
 mp_sum_l                        103980 11.0   10.612   19.827   10.612   19.827
 qs_ot_get_derivative_taylor        491 10.0    0.014    0.016   18.731   19.146
 cp_dbcsr_syevd                     559  9.5    0.158    0.180   19.054   19.065
 ot_diis_step                       446  9.0    0.044    0.050   18.018   18.033
 cp_fm_diag_elpa                    428 11.0    0.002    0.004   17.959   18.032
 cp_fm_redistribute_end             563 11.5    9.045   17.885    9.102   17.918
 mp_alltoall_d11v                 12934 12.0   13.434   17.644   13.434   17.644
 cp_fm_diag_elpa_base               428 12.0    8.598   17.229    8.641   17.346
 qs_ot_get_derivative_diag          472  9.7    0.009    0.011   16.695   16.904
 apply_preconditioner_dbcsr         991  9.8    0.003    0.003   14.600   16.700
 apply_single                       991 10.8    0.003    0.004   14.597   16.698
 init_scf_loop                       12  4.0    0.003    0.006   16.548   16.577
 xc_functional_eval                 446 11.0    0.008    0.010   14.287   16.535
 pbe_lsd_eval                       446 12.0   14.279   16.528   14.279   16.528
 rs_gather_matrices                 892 10.0    0.399    0.510    9.816   14.014
 mp_irecv_dv                     755007 13.8    3.981   13.211    3.981   13.211
 -------------------------------------------------------------------------------

 The number of warnings for this run is : 4
 
 -------------------------------------------------------------------------------
  **** **** ******  **  PROGRAM ENDED AT                 2025-06-17 06:39:39.617
 ***** ** ***  *** **   PROGRAM RAN ON                                 nid002288
 **    ****   ******    PROGRAM RAN BY                                    cahart
 ***** **    ** ** **   PROGRAM PROCESS ID                                211564
  **** **  *******  **  PROGRAM STOPPED IN /mnt/lustre/a2fs-work2/work/e05/e05/c
                                           ahart/postdoc2/work/group/tio2/anatas
                                           e/cell-441/geo-opt/mp-390/hole/from-n
                                           eutral/pbe-u-o/u-7.5-rs-9.0-energy
