     192
 i =        1, E =     -5772.6499855614
Ti        -0.0007038247       -0.0007054498        0.0000008933
Ti         1.8925725879        1.8925865039        4.8075132746
Ti        -0.0006848023        1.8925851878        2.4026412307
Ti         1.8926000182       -0.0006882573        7.2123674771
Ti        -0.0006582751        3.7811349940        0.0016667544
Ti         1.8925984431       13.2394823069        4.8063954281
Ti        11.3462609019        1.8925764037        2.4037152934
Ti         5.6738403533       -0.0006618536        7.2133227539
Ti         1.8925530513        3.7811458956        7.2107195718
Ti        -0.0007062820       13.2395029608        2.4037730351
Ti         5.6738499507        1.8925315388        4.8065523140
Ti        11.3462459444       -0.0006781224       -0.0010789250
Ti         3.7811338854       -0.0006490083       -0.0016641764
Ti        13.2394767722        1.8925892991        4.8086332377
Ti        13.2395090949       -0.0007212152        7.2112595872
Ti         3.7811566160        1.8925699688        2.4043018111
Ti         1.8925426635        5.6738466788        4.8084611124
Ti        -0.0006854495       11.3462446096        0.0010828055
Ti        -0.0006611056        5.6738393151        2.4016891466
Ti         1.8925856457       11.3462579489        7.2113029182
Ti        -0.0006557262        7.5651170208        0.0020442139
Ti         1.8925675506        9.4577556764        4.8080327150
Ti         7.5651121366        1.8925496486        2.4046964407
Ti         9.4577802606       -0.0006679081        7.2128986638
Ti         1.8925437468        7.5650971340        7.2103233506
Ti        -0.0006591761        9.4577732970        2.4021182229
Ti         9.4577515859        1.8925583801        4.8069923948
Ti         7.5651056199       -0.0006383109       -0.0020460806
Ti         3.7811611478        3.7811662363       -0.0000022084
Ti        13.2395036673       13.2395063980        4.8075093300
Ti        11.3463020965        5.6738434462        2.4027748148
Ti         5.6738527100       11.3462940899        7.2122494671
Ti        13.2394525973        3.7811272948        7.2095954546
Ti         3.7811370510       13.2394566716        2.4054247676
Ti         5.6738426810        5.6738448469        4.8075109906
Ti        11.3462651204       11.3462631463       -0.0000047987
Ti        11.3462432093       13.2394869129        2.4048462562
Ti         5.6738500357        3.7811476727        7.2116705346
Ti         3.7811645052       11.3463021955       -0.0005805793
Ti        13.2394485271        5.6738308026        4.8095879364
Ti         5.6738500914       13.2394483477        4.8054395626
Ti        11.3462799088        3.7811668891        0.0005718171
Ti        13.2394816039       11.3462387537        7.2101739446
Ti         3.7811507202        5.6738484822        2.4033491056
Ti         3.7811606389        7.5651243523        0.0004042966
Ti        13.2394653636        9.4577726280        4.8091589546
Ti         7.5651087128        5.6738378776        2.4037405682
Ti         9.4577549677       11.3462767479        7.2118219185
Ti        13.2394541355        7.5650992419        7.2092119477
Ti         3.7811550624        9.4577456930        2.4037850618
Ti         9.4577578082        5.6738440557        4.8079426434
Ti         7.5651173324       11.3463124854       -0.0009657436
Ti        11.3462809565        9.4577619345        2.4032032137
Ti         5.6738381039        7.5651002881        7.2112800305
Ti         5.6738385315        9.4577608475        4.8070723924
Ti        11.3463043363        7.5651096596        0.0009659168
Ti         9.4577536026        3.7811374318        7.2112425646
Ti         7.5651063062       13.2394570728        2.4058070286
Ti         7.5651010618        3.7811659734       -0.0003925212
Ti         9.4577781363       13.2394705037        4.8058691798
Ti         7.5651154781        7.5651185137        0.0000040472
Ti         9.4577426519        9.4577549455        4.8075032904
Ti         7.5650940446        9.4577641952        2.4041643752
Ti         9.4577516270        7.5650899453        7.2108491249
O         0.0012426587        0.0025142769        1.9881620283
O         1.8837316258        1.8897200746        6.7937696854
O         0.0024884152        1.8835416551        4.3910476606
O         1.8896614226        0.0012179508        9.1983235368
O         1.8835332763        0.0024988848        5.2239541850
O         0.0012243494        1.8896553939        0.4166906535
O         1.8897119279        1.8837251279        2.8212595472
O         0.0025298132        0.0012620562        7.6268654574
O         0.0012338319        3.7815888562        1.9880790302
O         1.8835378376       13.2362581488        6.7948013504
O        11.3491007167        1.8837284904        4.3899715598
O         5.6727631520        0.0012110578        9.1996894460
O         1.8839667679        3.7816107871        5.2239235813
O         0.0012507252       13.2362342791        0.4156039148
O         5.6727823340        1.8840212459        2.8197716814
O        11.3491642681        0.0012446192        7.6279810648
O         3.7815899239        0.0012353578        7.6269520948
O        13.2362646066        1.8835355015        2.8202337879
O        13.2362336188        0.0012199215        9.1994192512
O         3.7816084305        1.8839671972        4.3911104545
O         1.8840613327        5.6727680553        6.7952337278
O         0.0012241217       11.3491639734        1.9870455568
O         0.0012479179        5.6727689999        0.4153370211
O         1.8837074542       11.3491088613        5.2250379405
O         0.0012308741        7.5662205210        1.9883989651
O         1.8839571946        9.4572954903        6.7948413525
O         7.5662166010        1.8840711109        4.3914680525
O         9.4573165943        0.0012047225        9.1993220461
O         1.8840383731        7.5662121445        5.2235412423
O         0.0012376576        9.4573186123        0.4157129409
O         9.4572969757        1.8839429623        2.8201803523
O         7.5662250231        0.0012411152        7.6266202062
O         3.7742010527        0.0024747162        1.9868510115
O        13.2372049893        1.8896480137        6.7945713949
O         0.0024538489        5.6702216291        4.3903113396
O         1.8897138771       11.3549230959        9.1975565914
O        13.2371818847        0.0025156484        5.2231053216
O         3.7742724922        1.8897778944        0.4178690877
O         1.8897881058        5.6701985328        2.8218855874
O         0.0024888692       11.3551395218        7.6277034426
O        11.3549394289        1.8897178898        0.4174627979
O         5.6701816146        0.0024508972        5.2246968937
O         5.6702151942        1.8897803162        6.7931338848
O        11.3551398316        0.0024924721        1.9873377724
O         1.8897786662        3.7742743850        9.1971435466
O         0.0025193594       13.2371840927        4.3919254522
O         0.0024652450        3.7741969067        7.6281818400
O         1.8896592049       13.2372152304        2.8204491224
O         3.7743948452        3.7816264408        1.9871091483
O        13.2371632068       13.2362360417        6.7956443746
O        11.3490430245        5.6702216661        4.3893366276
O         5.6727838144       11.3546024122        9.1990057603
O        13.2372392237        3.7815808938        5.2231913013
O         3.7741590578       13.2362939931        0.4169129793
O         5.6727741485        5.6702093004        2.8201175793
O        11.3491114572       11.3549635107        7.6287596184
O        11.3551175079       13.2362627370        0.4164312335
O         5.6702076810        3.7816194831        5.2243480721
O         3.7816109786       11.3547131730        7.6276450962
O        13.2362995173        5.6701896822        2.8209602964
O         5.6701924099       13.2363002344        6.7940643409
O        11.3547020196        3.7816023667        1.9873720803
O        13.2362610453       11.3551356985        9.1985728442
O         3.7816244896        5.6702221394        4.3906742950
O         5.6701985321        5.6727805760        6.7949053585
O        11.3549520642       11.3491153981        1.9862546237
O        13.2362887127        3.7741793170        9.1981078662
O         3.7815902149       13.2372257682        4.3918318978
O        11.3546186490        5.6727826833        0.4160226328
O         5.6701899005       11.3490464528        5.2256882152
O         3.7816308670        3.7743990731        7.6279149809
O        13.2362319980       13.2371765385        2.8193609061
O        13.2372203326       11.3491723690        5.2242294365
O         3.7744083014        5.6727896540        0.4162008184
O         5.6727654437       13.2372486323        2.8190993274
O        11.3490526582        3.7742880848        7.6291720060
O         3.7742801172       11.3490501149        1.9858519249
O        13.2372395265        5.6727565538        6.7959282465
O        11.3491632182       13.2372008955        4.3907908218
O         5.6727797655        3.7743918987        9.1988160147
O         3.7744194168        7.5662052757        1.9875453292
O        13.2372324287        9.4573163721        6.7955532886
O         7.5662101795        5.6702187756        4.3911259089
O         9.4573024318       11.3547021659        9.1986177078
O        13.2372443773        7.5662216982        5.2228633349
O         3.7743623105        9.4572920511        0.4166842855
O         9.4572840349        5.6702068978        2.8206382301
O         7.5662149680       11.3546262889        7.6272985782
O        11.3546970657        9.4572988415        0.4164089818
O         5.6702002504        7.5662121353        5.2238914646
O         5.6702188349        9.4572782843        6.7943800408
O        11.3546235897        7.5662177779        1.9877361512
O         9.4572799024        3.7743544554        9.1983314624
O         7.5662300364       13.2372247570        4.3921585452
O         7.5662084909        3.7744302046        7.6274966202
O         9.4573142028       13.2372370976        2.8194687715
O         7.5690628248        0.0024583373        1.9865826400
O         9.4646664614        1.8897688927        6.7934031922
O         0.0024774787        9.4647583643        4.3906150530
O         1.8897894061        7.5690174809        9.1969009327
O         9.4647629503        0.0024763148        5.2244037109
O         7.5690483981        1.8897981926        0.4181206760
O         1.8897709938        9.4646791108        2.8216192460
O         0.0024576782        7.5690869955        7.6284409305
O         7.5690374639        3.7816289324        1.9869225058
O         9.4647740333       13.2362870121        6.7943621449
O        11.3490482159        9.4646705259        4.3896245189
O         5.6727843615        7.5690317545        9.1986686239
O         9.4645603778        3.7816253035        5.2241721962
O         7.5690518648       13.2363096755        0.4171766024
O         5.6727823426        9.4645060365        2.8199738687
O        11.3490414123        7.5690729203        7.6294106476
O         3.7816255124        7.5690528075        7.6280889617
O        13.2362921246        9.4647789969        2.8206723282
O        13.2363024020        7.5690454897        9.1978210269
O         3.7816322874        9.4645676009        4.3908685804
O         9.4645111173        5.6727702833        6.7950446979
O         7.5690529330       11.3490480936        1.9855881335
O         7.5690409406        5.6727840236        0.4163578009
O         9.4646858994       11.3490598503        5.2254216610
O         7.5690461595        7.5662003477        1.9873835611
O         9.4645669090        9.4572695390        6.7945946030
O         7.5662015236        9.4645032651        4.3912657936
O         9.4572850546        7.5690343129        9.1981575065
O         9.4645371363        7.5662054487        5.2237312276
O         7.5690352367        9.4572819878        0.4168719920
O         9.4572715046        9.4645600961        2.8204228679
O         7.5662043875        7.5690580609        7.6276345188
     192
 i =        2, E =     -5772.6510477840
Ti         0.0008738934        0.0008663621       -0.0000013233
Ti         1.8891992855        1.8892019080        4.8075075181
Ti         0.0008457724        1.8891211939        2.4017315465
Ti         1.8891274170        0.0008437055        7.2132955656
Ti         0.0008348379        3.7778885177        0.0028448488
Ti         1.8891287536       13.2377301257        4.8054596060
Ti        11.3495277962        1.8891993229        2.4036839393
Ti         5.6723942102        0.0007922056        7.2155741060
Ti         1.8892882658        3.7779122373        7.2104221815
Ti         0.0008670173       13.2377139375        2.4037871846
Ti         5.6724121810        1.8892607785        4.8052319443
Ti        11.3496072487        0.0008468922       -0.0019674842
Ti         3.7778883844        0.0008463257       -0.0028450713
Ti        13.2377340451        1.8891221990        4.8095619975
Ti        13.2377120013        0.0008544321        7.2112402117
Ti         3.7779238528        1.8892944623        2.4045960309
Ti         1.8892693082        5.6724140206        4.8097844127
Ti         0.0008489352       11.3496071731        0.0019630748
Ti         0.0007957761        5.6723954832        2.3994428243
Ti         1.8892042057       11.3495286247        7.2113380382
Ti         0.0008042000        7.5667347087        0.0042696001
Ti         1.8892831988        9.4610271800        4.8082749286
Ti         7.5667178333        1.8892782595        2.4059917199
Ti         9.4610620163        0.0008278783        7.2140309440
Ti         1.8892745134        7.5667077231        7.2090297279
Ti         0.0008365666        9.4610594343        2.4009975065
Ti         9.4610267917        1.8892797284        4.8067488327
Ti         7.5667272891        0.0008092915       -0.0042759692
Ti         3.7779554377        3.7779637753       -0.0000053463
Ti        13.2377170547       13.2377127044        4.8075135359
Ti        11.3494692060        5.6724161849        2.4014126913
Ti         5.6724180886       11.3494626703        7.2136125691
Ti        13.2377495803        3.7778802498        7.2084028592
Ti         3.7778878361       13.2377559850        2.4066256608
Ti         5.6724089415        5.6724153046        4.8075081901
Ti        11.3495382285       11.3495433950       -0.0000020152
Ti        11.3496074862       13.2377369270        2.4057453640
Ti         5.6724281687        3.7778925329        7.2125880356
Ti         3.7779205784       11.3494586293       -0.0009073134
Ti        13.2377873640        5.6723867669        4.8118467251
Ti         5.6723970720       13.2377811932        4.8031745103
Ti        11.3494446648        3.7779210174        0.0009091785
Ti        13.2377359233       11.3496003209        7.2092745732
Ti         3.7778980885        5.6724351577        2.4024281498
Ti         3.7779063289        7.5667029193        0.0012997691
Ti        13.2377513085        9.4610494570        4.8102985146
Ti         7.5667101309        5.6724180587        2.4037229422
Ti         9.4610364160       11.3494442704        7.2120898824
Ti        13.2377857505        7.5667242635        7.2069698331
Ti         3.7779479817        9.4609971643        2.4038335746
Ti         9.4610431650        5.6724275443        4.8089233602
Ti         7.5667247771       11.3494794084       -0.0023071582
Ti        11.3494445097        9.4610340201        2.4029267000
Ti         5.6724140428        7.5667035716        7.2112998688
Ti         5.6724208526        9.4610366319        4.8060948304
Ti        11.3494655693        7.5667245737        0.0023078117
Ti         9.4609882790        3.7779363493        7.2111860348
Ti         7.5667325634       13.2377942639        2.4080510907
Ti         7.5666899535        3.7779085669       -0.0012951237
Ti         9.4610619808       13.2377482667        4.8047254071
Ti         7.5667130423        7.5667181452        0.0000040524
Ti         9.4609908436        9.4609826805        4.8075046024
Ti         7.5666887852        9.4610444708        2.4051272594
Ti         9.4610387533        7.5666906307        7.2098872120
O         0.0006820734        0.0008120452        1.9837591834
O         1.8857316195        1.8889460551        6.7884373249
O         0.0008637191        1.8858090708        4.3867971597
O         1.8889176587        0.0007044786        9.1929086898
O         1.8858101039        0.0008614927        5.2282263642
O         0.0007018292        1.8889080889        0.4221176499
O         1.8889389451        1.8857332080        2.8265821436
O         0.0008130592        0.0006797908        7.6312637590
O         0.0006801684        3.7779962437        1.9845942656
O         1.8858178119       13.2377023302        6.7905188718
O        11.3497586738        1.8857433879        4.3846034841
O         5.6714538881        0.0006970820        9.1968527744
O         1.8854987132        3.7780626789        5.2273014714
O         0.0006855416       13.2377488038        0.4200287618
O         5.6714833118        1.8854681116        2.8225301452
O        11.3497837361        0.0007074692        7.6334453741
O         3.7779934492        0.0006875623        7.6304279200
O        13.2377005359        1.8858108058        2.8245072445
O        13.2377520974        0.0006816550        9.1949909382
O         3.7780666618        1.8855142341        4.3877219765
O         1.8854562396        5.6714741283        6.7924819690
O         0.0007026059       11.3497895974        1.9815768767
O         0.0006840732        5.6714560773        0.4181761715
O         1.8857454939       11.3497602328        5.2304130804
O         0.0006894944        7.5676835189        1.9855273318
O         1.8855191677        9.4608686890        6.7913914033
O         7.5676668665        1.8854641959        4.3886830795
O         9.4609401342        0.0006898838        9.1957804069
O         1.8854718493        7.5676637118        5.2263332789
O         0.0006779030        9.4609384797        0.4192584410
O         9.4608633488        1.8855121525        2.8236256817
O         7.5676831681        0.0006973736        7.6294875884
O         3.7677604956        0.0009349893        1.9827422154
O        13.2378115782        1.8889078303        6.7891434766
O         0.0009411003        5.6642302950        4.3856395040
O         1.8889369650       11.3527656139        9.1922290561
O        13.2378392862        0.0008096461        5.2275086075
O         3.7678488240        1.8890006403        0.4230470756
O         1.8889617806        5.6641939798        2.8275515953
O         0.0008579633       11.3526829786        7.6319551300
O        11.3527663650        1.8889300655        0.4227876452
O         5.6641746486        0.0009378801        5.2293731262
O         5.6642314697        1.8889491293        6.7874681856
O        11.3526821780        0.0008616568        1.9830790177
O         1.8889983688        3.7678489523        9.1919654292
O         0.0008130130       13.2378420617        4.3875129889
O         0.0009342944        3.7677595001        7.6322829602
O         1.8889119616       13.2378115316        2.8258737612
O         3.7678273610        3.7781555314        1.9839206903
O        13.2378418792       13.2377577482        6.7912226902
O        11.3497575766        5.6642373965        4.3836233570
O         5.6714750440       11.3530404789        9.1962690014
O        13.2378181007        3.7779888234        5.2266786438
O         3.7677519568       13.2376330029        0.4210394961
O         5.6714733688        5.6640705868        2.8228278583
O        11.3497690647       11.3527495586        7.6341298804
O        11.3526754873       13.2377032557        0.4207092153
O         5.6641244422        3.7781363518        5.2278055448
O         3.7780623092       11.3529954039        7.6310253423
O        13.2376296716        5.6641728323        2.8256470232
O         5.6641952342       13.2376330930        6.7893702693
O        11.3529905435        3.7780615868        1.9840003976
O        13.2377012170       11.3526661594        9.1943018941
O         3.7781364262        5.6641487166        4.3872142744
O         5.6640623030        5.6714822551        6.7921924264
O        11.3527544692       11.3497647291        1.9808906366
O        13.2376348488        3.7677573573        9.1939851152
O         3.7779898051       13.2378189760        4.3883491780
O        11.3530360041        5.6714788759        0.4187553038
O         5.6641963180       11.3497521180        5.2314014288
O         3.7781659889        3.7678225593        7.6311044179
O        13.2377498100       13.2378412569        2.8237915198
O        13.2378158626       11.3497889333        5.2296992912
O         3.7678320149        5.6715067488        0.4187715413
O         5.6714594268       13.2377991900        2.8219375340
O        11.3497119625        3.7678703310        7.6343986057
O         3.7678764962       11.3497210789        1.9806298383
O        13.2378020085        5.6714480213        6.7930846210
O        11.3497870199       13.2378196017        4.3853192792
O         5.6715021952        3.7678207103        9.1962511492
O         3.7678319964        7.5676416755        1.9849427946
O        13.2378187277        9.4609448472        6.7920043782
O         7.5676540540        5.6640910455        4.3883809624
O         9.4608736058       11.3529845942        9.1951716696
O        13.2378048971        7.5676787236        5.2257404526
O         3.7678144670        9.4607697078        0.4199381849
O         9.4607959026        5.6641153621        2.8241727310
O         7.5676718567       11.3530421943        7.6300648230
O        11.3529966124        9.4608767642        0.4198498397
O         5.6640571875        7.5676527016        5.2266423395
O         5.6641478810        9.4607957151        6.7908481453
O        11.3530429544        7.5676737724        1.9849591223
O         9.4607775251        3.7678106087        9.1950755557
O         7.5676848985       13.2378060938        4.3892889076
O         7.5676276503        3.7678411959        7.6300908212
O         9.4609406405       13.2378232237        2.8230147169
O         7.5755651545        0.0009424150        1.9819188075
O         9.4707310126        1.8889957868        6.7882371796
O         0.0009290824        9.4708236404        4.3865313350
O         1.8889607157        7.5754828141        9.1912482949
O         9.4708256715        0.0009266628        5.2284954192
O         7.5755322318        1.8889584446        0.4237690907
O         1.8889976517        9.4707321614        2.8267862112
O         0.0009412146        7.5756023244        7.6330977270
O         7.5756131578        3.7781509531        1.9834739126
O         9.4708250216       13.2376445627        6.7902534654
O        11.3497068979        9.4707300018        4.3844074901
O         5.6714804756        7.5756571822        9.1959603220
O         9.4707777193        3.7781510202        5.2273470281
O         7.5755406260       13.2376303777        0.4218623824
O         5.6715036907        9.4707615840        2.8225263490
O        11.3497518801        7.5755601346        7.6351205318
O         3.7781468732        7.5756489777        7.6315370525
O        13.2376397655        9.4708285788        2.8247763799
O        13.2376302779        7.5755263907        9.1931433046
O         3.7781565366        9.4707774349        4.3876853543
O         9.4707594201        5.6715019871        6.7924937828
O         7.5755300748       11.3497564127        1.9798856292
O         7.5756728059        5.6714781790        0.4190651083
O         9.4707222921       11.3497034572        5.2306270410
O         7.5756778101        7.5676477883        1.9846289395
O         9.4707642454        9.4607740870        6.7913432120
O         7.5676337290        9.4707662258        4.3886839646
O         9.4607907472        7.5755915498        9.1946234468
O         9.4707627687        7.5676262685        5.2263239194
O         7.5756013607        9.4607883327        0.4204037308
O         9.4607708789        9.4707815482        2.8236777471
O         7.5676560986        7.5756953099        7.6303828428
     192
 i =        3, E =     -5772.6513067910
Ti         0.0003433407        0.0003429764        0.0000004248
Ti         1.8889527876        1.8889538353        4.8075064406
Ti         0.0003506676        1.8889502283        2.4028871049
Ti         1.8889559235        0.0003448833        7.2121384180
Ti         0.0003709148        3.7758731280        0.0024936351
Ti         1.8889604667       13.2382182092        4.8066270009
Ti        11.3497337829        1.8889540389        2.4037057299
Ti         5.6710249184        0.0003388731        7.2153722459
Ti         1.8889671495        3.7758679264        7.2095825322
Ti         0.0003425082       13.2382321106        2.4037752609
Ti         5.6710230064        1.8888980441        4.8042120894
Ti        11.3497324799        0.0003538138       -0.0008285872
Ti         3.7758713976        0.0003824549       -0.0024921029
Ti        13.2382198185        1.8889552797        4.8083938128
Ti        13.2382338908        0.0003323598        7.2112476039
Ti         3.7758785079        1.8889769631        2.4054342015
Ti         1.8889007598        5.6710292160        4.8108053761
Ti         0.0003530753       11.3497364674        0.0008260325
Ti         0.0003388398        5.6710233350        2.3996418494
Ti         1.8889614614       11.3497316025        7.2113179511
Ti         0.0003509560        7.5681960425        0.0040395430
Ti         1.8889683883        9.4630216630        4.8090971631
Ti         7.5682020364        1.8889109142        2.4069809658
Ti         9.4630256107        0.0003597234        7.2136630023
Ti         1.8889128078        7.5681966846        7.2080400772
Ti         0.0003672253        9.4630240405        2.4013642513
Ti         9.4630208299        1.8889669153        4.8059277925
Ti         7.5681931264        0.0003572597       -0.0040422105
Ti         3.7759142130        3.7759204525       -0.0000036159
Ti        13.2382387866       13.2382337550        4.8075132845
Ti        11.3497893242        5.6710273287        2.4004126551
Ti         5.6710290716       11.3497822834        7.2146086528
Ti        13.2381981388        3.7758685756        7.2087636008
Ti         3.7758727205       13.2382019804        2.4062624872
Ti         5.6709794354        5.6709872972        4.8075094223
Ti        11.3497384693       11.3497405319       -0.0000002419
Ti        11.3497339592       13.2382244917        2.4046019623
Ti         5.6710182517        3.7758153327        7.2127704198
Ti         3.7758793285       11.3497335130       -0.0017243125
Ti        13.2382244626        5.6710220996        4.8116340723
Ti         5.6710244973       13.2382201558        4.8033878423
Ti        11.3497182947        3.7758806525        0.0017276100
Ti        13.2382230503       11.3497202958        7.2104214282
Ti         3.7758171762        5.6710256301        2.4022469813
Ti         3.7758322462        7.5682056318        0.0014517968
Ti        13.2382011023        9.4630145323        4.8099204037
Ti         7.5682388750        5.6709891672        2.4036992259
Ti         9.4630232877       11.3497085567        7.2128867612
Ti        13.2382201269        7.5681906348        7.2072127954
Ti         3.7759059194        9.4629836433        2.4038527850
Ti         9.4630712004        5.6710235682        4.8091279913
Ti         7.5682044020       11.3497950169       -0.0032741975
Ti        11.3497182139        9.4630255389        2.4021278956
Ti         5.6709862310        7.5682347587        7.2113208936
Ti         5.6710139553        9.4630682653        4.8058959697
Ti        11.3497821106        7.5682034630        0.0032739598
Ti         9.4629793507        3.7759022109        7.2111666647
Ti         7.5681959592       13.2382278970        2.4078084004
Ti         7.5681941769        3.7758352951       -0.0014508087
Ti         9.4630224383       13.2382018846        4.8051015480
Ti         7.5682370857        7.5682404115        0.0000037000
Ti         9.4629810188        9.4629772897        4.8075072699
Ti         7.5681975239        9.4630672321        2.4053053650
Ti         9.4630599552        7.5681986323        7.2097130866
O         0.0013226604        0.0016278416        1.9829405710
O         1.8847828785        1.8876108493        6.7879122884
O         0.0016180290        1.8847106133        4.3873688512
O         1.8875877305        0.0013456564        9.1910256171
O         1.8847143348        0.0016167395        5.2276588229
O         0.0013448689        1.8875858661        0.4239991513
O         1.8876097257        1.8847828795        2.8271069974
O         0.0016294287        0.0013157621        7.6320845897
O         0.0013200596        3.7771619872        1.9822562440
O         1.8847102765       13.2369379424        6.7911273369
O        11.3510601865        1.8847770686        4.3841686586
O         5.6711954097        0.0012671337        9.1957613974
O         1.8847375159        3.7771712240        5.2281996339
O         0.0013185992       13.2369272960        0.4208122239
O         5.6712120188        1.8846876619        2.8221714118
O        11.3510841650        0.0013349430        7.6352391431
O         3.7771625930        0.0013206685        7.6327642242
O        13.2369391765        1.8847106019        2.8238968815
O        13.2369256022        0.0013231538        9.1942038668
O         3.7771735168        1.8847398438        4.3868163579
O         1.8846794412        5.6712088753        6.7928472715
O         0.0013435647       11.3510864890        1.9797840031