     192
 i =        1, E =     -5772.6499855614
Ti         0.0006405625        0.0006369053       -0.0000004912
Ti        -0.0009247791       -0.0009262351       -0.0000025351
Ti         0.0006407201       -0.0009477404       -0.0006130979
Ti        -0.0009501389        0.0006409164        0.0006173347
Ti         0.0006456752       -0.0014036829        0.0002933796
Ti        -0.0009502362       -0.0006954774       -0.0006198303
Ti         0.0009039146       -0.0009249865        0.0000029582
Ti        -0.0003511552        0.0006489656        0.0004189598
Ti        -0.0008949201       -0.0013923902        0.0003147504
Ti         0.0006381039       -0.0006934188        0.0000017567
Ti        -0.0003599698       -0.0008756215        0.0001973319
Ti         0.0009256894        0.0006388774       -0.0006172766
Ti        -0.0014059862        0.0006461164       -0.0002907301
Ti        -0.0006941917       -0.0009513159        0.0006161470
Ti        -0.0006925151        0.0006382405       -0.0000030844
Ti        -0.0013945721       -0.0009006849       -0.0003122126
Ti        -0.0008786914       -0.0003564464       -0.0001976045
Ti         0.0006424186        0.0009301312        0.0006161795
Ti         0.0006503928       -0.0003515256       -0.0004151385
Ti        -0.0009291220        0.0009011508       -0.0000001940
Ti         0.0006532781        0.0004067336        0.0004192468
Ti        -0.0009028669        0.0014095589       -0.0003149421
Ti         0.0004112552       -0.0008794971       -0.0001979579
Ti         0.0014204368        0.0006425258        0.0002949332
Ti        -0.0008769653        0.0004119853        0.0001970406
Ti         0.0006433797        0.0014216308       -0.0002876179
Ti         0.0014115135       -0.0008957694        0.0003142209
Ti         0.0004096243        0.0006485568       -0.0004189099
Ti        -0.0013758879       -0.0013739093       -0.0000013400
Ti        -0.0006905548       -0.0006927047       -0.0000008669
Ti         0.0008542099       -0.0003545789        0.0001982512
Ti        -0.0003572482        0.0008530727       -0.0001973530
Ti        -0.0006940977       -0.0014082877       -0.0002952312
Ti        -0.0014086290       -0.0006942049        0.0002974437
Ti        -0.0003593348       -0.0003586947       -0.0000006470
Ti         0.0009044394        0.0009066047        0.0000012778
Ti         0.0009274875       -0.0006961075        0.0006182418
Ti        -0.0003606649       -0.0013641849        0.0001048818
Ti        -0.0013971064        0.0008736189        0.0003150636
Ti        -0.0006979916       -0.0003489697        0.0004167615
Ti        -0.0003552085       -0.0007003069       -0.0004195126
Ti         0.0008751915       -0.0013965068       -0.0003106812
Ti        -0.0006935839        0.0009268179       -0.0006209915
Ti        -0.0013636739       -0.0003596819       -0.0001061887
Ti        -0.0013654799        0.0004109708        0.0001040305
Ti        -0.0006977813        0.0014215330        0.0002923429
Ti         0.0004138955       -0.0003548413        0.0000036956
Ti         0.0014116799        0.0008722222       -0.0003199697
Ti        -0.0007006534        0.0004113153       -0.0004253550
Ti        -0.0013769346        0.0013925607        0.0000012166
Ti         0.0013762041       -0.0003560962        0.0001098172
Ti         0.0004115465        0.0008560585        0.0001949551
Ti         0.0008746221        0.0014087189        0.0003200809
Ti        -0.0003586369        0.0004155338       -0.0000030103
Ti        -0.0003552835        0.0013736759       -0.0001058510
Ti         0.0008532298        0.0004144481       -0.0001940137
Ti         0.0013869918       -0.0013724142       -0.0000042326
Ti         0.0004104625       -0.0006977020        0.0004209590
Ti         0.0004135810       -0.0013641256       -0.0001091854
Ti         0.0014228379       -0.0007013847       -0.0002939643
Ti         0.0004130648        0.0004136243        0.0000004754
Ti         0.0013928737        0.0013878481        0.0000021968
Ti         0.0004171977        0.0013725897        0.0001120419
Ti         0.0013773055        0.0004163526       -0.0001145678
O        -0.0001504128        0.0000854541       -0.0010909282
O         0.0006815370        0.0003596345       -0.0009638766
O         0.0001046391        0.0007301845       -0.0007712584
O         0.0003829377       -0.0001421673       -0.0012530175
O         0.0007319639        0.0001009620        0.0007769144
O        -0.0001438064        0.0003842181        0.0012538278
O         0.0003627945        0.0006830704        0.0009624138
O         0.0000797075       -0.0001544972        0.0010894334
O        -0.0001491112       -0.0005932181       -0.0011070399
O         0.0007322054       -0.0001093758       -0.0007719121
O        -0.0003788885        0.0006838523       -0.0009574960
O        -0.0001196505       -0.0001422978       -0.0012508606
O         0.0006018644       -0.0005934755        0.0008219788
O        -0.0001514991       -0.0000940210        0.0010901203
O        -0.0001200628        0.0005868005        0.0009744430
O        -0.0004034769       -0.0001469190        0.0012507475
O        -0.0005922581       -0.0001483583        0.0011030578
O        -0.0001145041        0.0007316281        0.0007685016
O        -0.0000921129       -0.0001459980       -0.0010902943
O        -0.0005916879        0.0006040256       -0.0008259045
O         0.0005772335       -0.0001167631       -0.0009710699
O        -0.0001436568       -0.0004023436       -0.0012508780
O        -0.0001513728       -0.0001213421        0.0012484145
O         0.0006882958       -0.0003811051        0.0009602756
O        -0.0001472732        0.0001356543       -0.0012481077
O         0.0006067022        0.0005838821       -0.0008216791
O         0.0001346458        0.0005764758       -0.0009701189
O         0.0005827652       -0.0001420068       -0.0011029198
O         0.0005839920        0.0001352995        0.0009727185
O        -0.0001502249        0.0005807303        0.0010996720
O         0.0005830201        0.0006084485        0.0008207193
O         0.0001336983       -0.0001481005        0.0012472700
O        -0.0004850374        0.0001220636       -0.0006990081
O         0.0001799064        0.0003879812       -0.0012558580
O         0.0001350116       -0.0006787268       -0.0006893232
O         0.0003626767       -0.0006919779       -0.0009702374
O         0.0001885997        0.0000858403        0.0010945726
O        -0.0004866265        0.0003414361        0.0008944384
O         0.0003338881       -0.0006792497        0.0008672520
O         0.0001054885       -0.0007465394        0.0007775977
O        -0.0006950671        0.0003599130        0.0009688698
O        -0.0006788845        0.0001363229        0.0006914447
O        -0.0006770815        0.0003346353       -0.0008678594
O        -0.0007466954        0.0001037606       -0.0007817245
O         0.0003400727       -0.0004870086       -0.0008928627
O         0.0000846135        0.0001885969       -0.0010967896
O         0.0001244837       -0.0004843864        0.0006964511
O         0.0003848578        0.0001779169        0.0012576326
O        -0.0005136318       -0.0005893887       -0.0007454003
O         0.0001926188       -0.0000916427       -0.0010889008
O        -0.0003514378       -0.0006775583       -0.0008625114
O        -0.0001218923       -0.0005895112       -0.0009730777
O         0.0001744746       -0.0005908049        0.0011102107
O        -0.0004780491       -0.0001374740        0.0006966058
O        -0.0001260395       -0.0006986578        0.0007668125
O        -0.0003819001       -0.0007021837        0.0009654552
O        -0.0007433109       -0.0001126026        0.0007785270
O        -0.0006907499       -0.0005946560        0.0006648882
O        -0.0005931643       -0.0006176623        0.0008295122
O        -0.0001430359       -0.0006807623        0.0006877100
O        -0.0006780480       -0.0001420462       -0.0006884624
O        -0.0006162088       -0.0005913424       -0.0008292700
O        -0.0001132034       -0.0007482319       -0.0007744691
O        -0.0005952707       -0.0006901212       -0.0006653631
O        -0.0006977122       -0.0001273575       -0.0007670837
O        -0.0006992372       -0.0003830744       -0.0009647003
O        -0.0001346676       -0.0004812392       -0.0006961084
O        -0.0005924786        0.0001772529       -0.0011098066
O        -0.0005933271       -0.0001215438        0.0009713076
O        -0.0006772132       -0.0003542691        0.0008622166
O        -0.0005891576       -0.0005151521        0.0007450142
O        -0.0000920471        0.0001899494        0.0010926940
O         0.0001775245       -0.0004072093        0.0012535003
O        -0.0005154634       -0.0001200263        0.0008883086
O        -0.0001181779        0.0001699674        0.0012515131
O        -0.0003599831       -0.0004865509        0.0008896453
O        -0.0004840952       -0.0003586440       -0.0008900475
O         0.0001721509       -0.0001193635       -0.0012523006
O        -0.0004047403        0.0001818848       -0.0012538630
O        -0.0001181031       -0.0005139057       -0.0008857496
O        -0.0005176309        0.0001373309       -0.0008873554
O         0.0001759261        0.0005834222       -0.0011028676
O         0.0001406684       -0.0006975928       -0.0007663098
O         0.0005820224       -0.0006170885       -0.0008246180
O         0.0001716410        0.0001328840        0.0012527823
O        -0.0005090981        0.0005752009        0.0007419192
O         0.0005846576       -0.0006920023        0.0006611026
O         0.0001360147       -0.0005939251        0.0009715050
O        -0.0006143399        0.0005823015        0.0008237596
O        -0.0006988090        0.0001407914        0.0007670698
O        -0.0006895971        0.0005876052       -0.0006613130
O        -0.0005932648        0.0001355560       -0.0009754703
O         0.0005806409       -0.0005081376       -0.0007390209
O         0.0001326496        0.0001756352       -0.0012513164
O         0.0001327672       -0.0005184224        0.0008838660
O         0.0005822612        0.0001756610        0.0011033719
O         0.0007315127        0.0001345901       -0.0006902880
O         0.0004322945        0.0003432659       -0.0008975621
O         0.0001220455        0.0004273283       -0.0007002024
O         0.0003336474        0.0007283677       -0.0008670694
O         0.0004267147        0.0001214174        0.0007013359
O         0.0007294297        0.0003300406        0.0008663378
O         0.0003459677        0.0004299622        0.0008978185
O         0.0001347558        0.0007321484        0.0006892643
O         0.0007429672       -0.0005950161       -0.0006640837
O         0.0004244507       -0.0001293300       -0.0006981577
O        -0.0003604099        0.0004313743       -0.0008964949
O        -0.0001282843        0.0007501994       -0.0007683261
O         0.0004597628       -0.0005925712        0.0007469415
O         0.0007301252       -0.0001467665        0.0006900548
O        -0.0001215726        0.0004679625        0.0008880283
O        -0.0003524716        0.0007286142        0.0008660335
O        -0.0005944142        0.0007451163        0.0006677102
O        -0.0001348446        0.0004240225        0.0006965118
O        -0.0001442279        0.0007293163       -0.0006854621
O        -0.0005923815        0.0004583154       -0.0007511499
O         0.0004666607       -0.0001174361       -0.0008881266
O         0.0007282053       -0.0003533757       -0.0008618083
O         0.0007506546       -0.0001280725        0.0007673624
O         0.0004272064       -0.0003641698        0.0008918965
O         0.0007503329        0.0001432624       -0.0007708473
O         0.0004565194        0.0005835924       -0.0007478808
O         0.0001346661        0.0004692112       -0.0008874491
O         0.0005838359        0.0007404311       -0.0006649384
O         0.0004620331        0.0001335605        0.0008922931
O         0.0007416830        0.0005834355        0.0006628739
O         0.0005820827        0.0004604117        0.0007478173
O         0.0001431323        0.0007505235        0.0007710388
     192
 i =        2, E =     -5772.6510477840
Ti         0.0001035428        0.0001056818        0.0000009410
Ti        -0.0001032421       -0.0001048174       -0.0000003147
Ti         0.0000945013       -0.0000773468        0.0005118395
Ti        -0.0000791535        0.0000955853       -0.0005159628
Ti         0.0000927960       -0.0008510059        0.0002063949
Ti        -0.0000780451       -0.0000845563        0.0005049599
Ti         0.0000729249       -0.0001031401       -0.0000204164
Ti        -0.0008589909        0.0000856010       -0.0000819327
Ti        -0.0001283308       -0.0008621026       -0.0007071446
Ti         0.0001046343       -0.0000941629        0.0000083197
Ti        -0.0008543246       -0.0001490477       -0.0004367387
Ti         0.0000462196        0.0000962623        0.0005373109
Ti        -0.0008500349        0.0000914565       -0.0002026614
Ti        -0.0000865069       -0.0000788993       -0.0005051906
Ti        -0.0000924945        0.0001089610       -0.0000088522
Ti        -0.0008640235       -0.0001274199        0.0007085759
Ti        -0.0001509878       -0.0008541209        0.0004362808
Ti         0.0000937740        0.0000468859       -0.0005339812
Ti         0.0000855174       -0.0008597276        0.0000825676
Ti        -0.0001034723        0.0000715717        0.0000193350
Ti         0.0000839553        0.0009157053       -0.0000768317
Ti        -0.0001252418        0.0008226201        0.0007010990
Ti         0.0009128835       -0.0001500495        0.0004404900
Ti         0.0008077306        0.0000941064        0.0001972030
Ti        -0.0001495570        0.0009141796       -0.0004435135
Ti         0.0000910489        0.0008097106       -0.0001964884
Ti         0.0008235775       -0.0001250922       -0.0007007701
Ti         0.0009180634        0.0000850099        0.0000785656
Ti        -0.0008708619       -0.0008717044        0.0000028444
Ti        -0.0000940292       -0.0000939908       -0.0000025029
Ti         0.0001176475       -0.0008554957       -0.0004567405
Ti        -0.0008545175        0.0001171482        0.0004546432
Ti        -0.0000852431       -0.0008508474       -0.0002130376
Ti        -0.0008503177       -0.0000848834        0.0002135208
Ti        -0.0008558771       -0.0008570731        0.0000003572
Ti         0.0000712057        0.0000695861        0.0000010128
Ti         0.0000462740       -0.0000853573       -0.0005258549
Ti        -0.0008499199       -0.0008888965       -0.0002372240
Ti        -0.0008610157        0.0000951985       -0.0007286657
Ti        -0.0000789412       -0.0008576624       -0.0000757475
Ti        -0.0008596805       -0.0000799115        0.0000755116
Ti         0.0000958357       -0.0008621718        0.0007300049
Ti        -0.0000852611        0.0000451039        0.0005249699
Ti        -0.0008900147       -0.0008528520        0.0002355138
Ti        -0.0008883582        0.0009081941       -0.0002347289
Ti        -0.0000870577        0.0008108370        0.0002050532
Ti         0.0009169355       -0.0008573537        0.0000044359
Ti         0.0008201717        0.0000926989        0.0007190381
Ti        -0.0000797039        0.0009189978        0.0000675968
Ti        -0.0008682388        0.0008319360        0.0000102388
Ti         0.0008518380       -0.0008514732       -0.0002289152
Ti         0.0009102509        0.0001152499       -0.0004610018
Ti         0.0000962304        0.0008224605       -0.0007175385
Ti        -0.0008553001        0.0009193026       -0.0000042208
Ti        -0.0008483732        0.0008538108        0.0002323313
Ti         0.0001179899        0.0009104295        0.0004591597
Ti         0.0008321353       -0.0008649314       -0.0000083970
Ti         0.0009172883       -0.0000796509       -0.0000688832
Ti         0.0009105729       -0.0008886576        0.0002330185
Ti         0.0008085391       -0.0000862981       -0.0002052050
Ti         0.0009152602        0.0009135829       -0.0000022102
Ti         0.0008291909        0.0008314978        0.0000027696
Ti         0.0009098724        0.0008515239       -0.0002240454
Ti         0.0008509968        0.0009097430        0.0002247498
O         0.0001446068        0.0004543781        0.0000357269
O        -0.0002484504       -0.0002206551        0.0004060752
O         0.0004240881       -0.0002871321        0.0003284900
O        -0.0002214573        0.0001428904        0.0001264258
O        -0.0002869785        0.0004255734       -0.0003268266
O         0.0001435908       -0.0002174844       -0.0001272054
O        -0.0002152935       -0.0002490565       -0.0004054060
O         0.0004550826        0.0001445226       -0.0000359981
O         0.0001442427        0.0003139752       -0.0005028581
O        -0.0002893575       -0.0004010860        0.0003404544
O         0.0002262879       -0.0002523679        0.0004386902
O         0.0000440830        0.0001291642       -0.0002961881
O        -0.0001949207        0.0002984075        0.0002019921
O         0.0001433331       -0.0004306121       -0.0000467021
O         0.0000413261       -0.0001952658       -0.0000043736
O         0.0002313279        0.0001411230       -0.0001597627
O         0.0003167412        0.0001427275        0.0005022373
O        -0.0004004536       -0.0002877624       -0.0003405895
O        -0.0004311335        0.0001439196        0.0000465687
O         0.0002968896       -0.0001980094       -0.0002044151
O        -0.0001926402        0.0000439994        0.0000066730
O         0.0001431498        0.0002286601        0.0001600334
O         0.0001317650        0.0000442217        0.0002931467
O        -0.0002527807        0.0002265798       -0.0004373321
O         0.0001313051       -0.0000498592       -0.0003043869
O        -0.0001990614       -0.0003128099       -0.0001943067
O        -0.0000495410       -0.0001943863       -0.0000058870
O        -0.0003329111        0.0001419312       -0.0004948566
O        -0.0001951069       -0.0000484437        0.0000077534
O         0.0001456125       -0.0003326073        0.0004906055
O        -0.0003114729       -0.0001969143        0.0001949777
O        -0.0000503127        0.0001287515        0.0003060043
O         0.0005751364        0.0003912367        0.0003585950
O        -0.0001583873       -0.0002180650        0.0001249728
O         0.0003770092       -0.0005508326        0.0005452283
O        -0.0002155396        0.0002715642        0.0004000530
O        -0.0001625985        0.0004570001       -0.0000324620
O         0.0005684951       -0.0002168476       -0.0004155131
O        -0.0002133574       -0.0005470168       -0.0005912512
O         0.0004277795        0.0003115464       -0.0003228610
O         0.0002719842       -0.0002126174       -0.0003988599
O        -0.0005491986        0.0003778500       -0.0005445697
O        -0.0005477809       -0.0002082392        0.0005900256
O         0.0003115625        0.0004243328        0.0003197668
O        -0.0002165314        0.0005688461        0.0004164874
O         0.0004550922       -0.0001632157        0.0000319888
O         0.0003907300        0.0005748043       -0.0003600790
O        -0.0002184298       -0.0001584086       -0.0001237642
O         0.0005661913        0.0002838666       -0.0002130552
O        -0.0001627513       -0.0004354386        0.0000472246
O         0.0002171119       -0.0005477018        0.0006246252
O         0.0000430106        0.0002148890       -0.0000008220
O        -0.0001546423        0.0003178163        0.0005054645
O         0.0005759545       -0.0003653582       -0.0003699358
O         0.0000459966       -0.0005812693       -0.0001668299
O         0.0002241251        0.0002769526       -0.0004320695
O         0.0003140282       -0.0004016744       -0.0003325500
O        -0.0005616418        0.0002809852        0.0000318890
O         0.0002977822        0.0002180531        0.0002113399
O        -0.0003539357       -0.0005495009       -0.0005555796
O        -0.0005488268       -0.0003561034        0.0005562288
O         0.0002191379        0.0002975971       -0.0002120307
O        -0.0004005548        0.0003161547        0.0003347074
O         0.0002801377       -0.0005626337       -0.0000307590
O        -0.0005805891        0.0000428237        0.0001675502
O         0.0002750982        0.0002276725        0.0004312506
O        -0.0003678770        0.0005744004        0.0003692583
O         0.0003173097       -0.0001551022       -0.0005075590
O         0.0002156402        0.0000431615        0.0000006533
O        -0.0005459885        0.0002183211       -0.0006249709
O         0.0002790482        0.0005668990        0.0002109631
O        -0.0004303414       -0.0001627034       -0.0000452340
O        -0.0001594963        0.0002286344       -0.0001579176
O         0.0005503439        0.0000462842        0.0000339557
O         0.0000439728       -0.0001384464        0.0002972403
O         0.0002244376        0.0005630952       -0.0004491020
O         0.0005622502        0.0002203438        0.0004477536
O        -0.0001389164        0.0000456319       -0.0002962074
O         0.0002297939       -0.0001605698        0.0001586187
O         0.0000468639        0.0005524368       -0.0000332835
O         0.0005506283       -0.0000538628       -0.0000444828
O        -0.0001554328       -0.0003349305       -0.0004939393
O        -0.0000510468       -0.0005808790        0.0001577522
O        -0.0003133208        0.0002205935       -0.0002000121
O        -0.0001409710       -0.0000507619        0.0003083852
O         0.0005683861       -0.0002943801        0.0002009089
O        -0.0002969744       -0.0005600083        0.0000191873
O        -0.0000495954        0.0002147470        0.0000123187
O         0.0002177080       -0.0003154556        0.0002003782
O        -0.0005795583       -0.0000499016       -0.0001582078
O        -0.0005605715       -0.0002963226       -0.0000191963
O         0.0002138273       -0.0000500449       -0.0000131851
O        -0.0002990162        0.0005697566       -0.0001980940
O        -0.0000511459       -0.0001409703       -0.0003094030
O        -0.0000520720        0.0005489046        0.0000412694
O        -0.0003338379       -0.0001571088        0.0004946506
O         0.0005114718        0.0003773397        0.0005449752
O        -0.0005540858       -0.0002189486        0.0004058783
O         0.0003947865       -0.0005610369        0.0003473337
O        -0.0002092635        0.0005114236        0.0005899439
O        -0.0005612719        0.0003944624       -0.0003467989
O         0.0005091298       -0.0002078668       -0.0005895662
O        -0.0002173965       -0.0005536437       -0.0004057140
O         0.0003788100        0.0005102771       -0.0005453863
O         0.0005223841        0.0002781424       -0.0000332034
O        -0.0005602513       -0.0003731201        0.0003589461
O         0.0002264190       -0.0005531441        0.0004368470
O         0.0000455400        0.0005407648        0.0001610857
O        -0.0005570808        0.0002819005        0.0002182686
O         0.0005134095       -0.0003529535       -0.0005563983
O         0.0000445229       -0.0005391189        0.0000375989
O         0.0002158574        0.0005078594       -0.0006220659
O         0.0002797801        0.0005211800        0.0000366972
O        -0.0003709143       -0.0005618350       -0.0003595677
O        -0.0003549494        0.0005129402        0.0005584404
O         0.0002798256       -0.0005570838       -0.0002224260
O        -0.0005386898        0.0000458082       -0.0000383610
O         0.0005094201        0.0002154466        0.0006248814
O         0.0005407036        0.0000462724       -0.0001625939
O        -0.0005511503        0.0002282909       -0.0004393967
O         0.0005396525       -0.0000495619        0.0001529363
O        -0.0005548884       -0.0002970693       -0.0002109385
O        -0.0000536339       -0.0005410499       -0.0000481597
O        -0.0002965115        0.0005224629       -0.0000216247
O        -0.0005404136       -0.0000500191        0.0000503073
O         0.0005221301       -0.0002959247        0.0000197819
O        -0.0002946076       -0.0005588295        0.0002091422
O        -0.0000528502        0.0005381756       -0.0001497701
     192
 i =        3, E =     -5772.6513067910
Ti         0.0001957576        0.0001970144       -0.0000001532
Ti         0.0000031234        0.0000022896        0.0000006339
Ti         0.0001931712        0.0000041924        0.0001550699
Ti         0.0000028100        0.0001938187       -0.0001572426
Ti         0.0001929034       -0.0000230286        0.0003540382
Ti         0.0000025026       -0.0001863207        0.0001475689
Ti         0.0000024265        0.0000026508       -0.0000199093
Ti        -0.0003287761        0.0001892624        0.0004933940
Ti         0.0000026561       -0.0000252972       -0.0005025345
Ti         0.0001967719       -0.0001919612        0.0000075854
Ti        -0.0003345991       -0.0000008313       -0.0006393325
Ti         0.0000025878        0.0001924364        0.0001761628
Ti        -0.0000218498        0.0001918895       -0.0003526945
Ti        -0.0001871026        0.0000028961       -0.0001466822
Ti        -0.0001917134        0.0001983137       -0.0000075620
Ti        -0.0000260077        0.0000024834        0.0005035377
Ti        -0.0000012542       -0.0003357555        0.0006393010
Ti         0.0001921890        0.0000020816       -0.0001755032
Ti         0.0001902045       -0.0003293273       -0.0004924249
Ti         0.0000009301        0.0000021198        0.0000191849
Ti         0.0001885284        0.0003253995        0.0004859667
Ti         0.0000024792        0.0000130121        0.0004828822
Ti         0.0003306552        0.0000001831        0.0006328375
Ti         0.0000094729        0.0001930801        0.0003330174
Ti        -0.0000015662        0.0003306590       -0.0006333703
Ti         0.0001931953        0.0000099786       -0.0003336667
Ti         0.0000126853        0.0000028976       -0.0004824866
Ti         0.0003252774        0.0001883140       -0.0004869089
Ti        -0.0000322132       -0.0000314312        0.0000013677
Ti        -0.0001927689       -0.0001926638       -0.0000005022
Ti         0.0000038535       -0.0003349628       -0.0006588107
Ti        -0.0003343107        0.0000050773        0.0006588553
Ti        -0.0001861629       -0.0000241117       -0.0003622119
Ti        -0.0000229228       -0.0001855021        0.0003620026
Ti        -0.0003643078       -0.0003655348       -0.0000003122
Ti         0.0000023941        0.0000033838       -0.0000000546
Ti         0.0000025451       -0.0001871422       -0.0001677913
Ti        -0.0003499357       -0.0000380082        0.0001468414
Ti        -0.0000252140        0.0000003163       -0.0005220727
Ti        -0.0001821099       -0.0003289786        0.0005013840
Ti        -0.0003284352       -0.0001817100       -0.0005014251
Ti         0.0000014127       -0.0000263235        0.0005230933
Ti        -0.0001868242        0.0000039569        0.0001668815
Ti        -0.0000382388       -0.0003516933       -0.0001478142
Ti        -0.0000368183        0.0003457341        0.0001387402
Ti        -0.0001870734        0.0000116577        0.0003416975
Ti         0.0003598003       -0.0003652390       -0.0000081176
Ti         0.0000130122        0.0000036418        0.0005033477
Ti        -0.0001817133        0.0003249751       -0.0004953859
Ti        -0.0000310651        0.0000195848        0.0000198457
Ti         0.0000262509       -0.0003507361        0.0001653461
Ti         0.0003297492        0.0000031059       -0.0006520349
Ti         0.0000019929        0.0000130170       -0.0005017280
Ti        -0.0003636248        0.0003602317        0.0000094350
Ti        -0.0003482599        0.0000271792       -0.0001663582
Ti         0.0000042286        0.0003298524        0.0006516373
Ti         0.0000194455       -0.0000311109       -0.0000191753
Ti         0.0003248007       -0.0001828453        0.0004958147
Ti         0.0003466975       -0.0000368522       -0.0001387437
Ti         0.0000103030       -0.0001867325       -0.0003409433
Ti         0.0003586839        0.0003585596       -0.0000009900
Ti         0.0000190145        0.0000200201        0.0000000426
Ti         0.0003445289        0.0000258825        0.0001583699
Ti         0.0000257341        0.0003440825       -0.0001575409
O        -0.0000831629       -0.0001673676        0.0002402751
O        -0.0000142746        0.0000910997        0.0005243252
O        -0.0001691578       -0.0000036471        0.0002231396
O         0.0001035521       -0.0000851486        0.0005218722
O        -0.0000042216       -0.0001687715       -0.0002235540
O        -0.0000849039        0.0001035220       -0.0005215831
O         0.0000918113       -0.0000142992       -0.0005239101
O        -0.0001671804       -0.0000816829       -0.0002404297
O        -0.0000835570        0.0000470643       -0.0000912410
O        -0.0000029476        0.0001788412        0.0002220313
O        -0.0000849899       -0.0000127826        0.0005387250
O         0.0001523189       -0.0000774329        0.0000087801
O        -0.0000184570        0.0000432717        0.0001320912
O        -0.0000821229        0.0001777134       -0.0002375595
O         0.0001479282       -0.0000115222        0.0000660199
O        -0.0000972321       -0.0000827421       -0.0005356384
O         0.0000477912       -0.0000836211        0.0000916117
O         0.0001787204       -0.0000032494       -0.0002218789
O         0.0001789463       -0.0000830433        0.0002381454
O         0.0000421116       -0.0000184177       -0.0001321862
O        -0.0000096589        0.0001486696       -0.0000660435
O        -0.0000846666       -0.0000983414        0.0005354514