 DBCSR| CPU Multiplication driver                                           XSMM (U)
 DBCSR| Multrec recursion limit                                              512 (U)
 DBCSR| Multiplication stack size                                           1000 (D)
 DBCSR| Maximum elements for images                                    UNLIMITED (U)
 DBCSR| Multiplicative factor virtual images                                   1 (U)
 DBCSR| Use multiplication densification                                       T (D)
 DBCSR| Multiplication size stacks                                             3 (U)
 DBCSR| Use memory pool for CPU allocation                                     F (U)
 DBCSR| Number of 3D layers                                               SINGLE (U)
 DBCSR| Use MPI memory allocation                                              F (U)
 DBCSR| Use RMA algorithm                                                      F (U)
 DBCSR| Use Communication thread                                               T (U)
 DBCSR| Communication thread load                                             87 (D)
 DBCSR| MPI: My process id                                                     0
 DBCSR| MPI: Number of processes                                             128
 DBCSR| OMP: Current number of threads                                         1
 DBCSR| OMP: Max number of threads                                             1
 DBCSR| Split modifier for TAS multiplication algorithm                  1.0E+00 (U)


  **** **** ******  **  PROGRAM STARTED AT               2025-06-16 15:58:23.163
 ***** ** ***  *** **   PROGRAM STARTED ON                             nid002448
 **    ****   ******    PROGRAM STARTED BY                                cahart
 ***** **    ** ** **   PROGRAM PROCESS ID                                180353
  **** **  *******  **  PROGRAM STARTED IN /mnt/lustre/a2fs-work2/work/e05/e05/c
                                           ahart/postdoc2/work/group/tio2/anatas
                                           e/cell-441/geo-opt/mp-390/hole/from-n
                                           eutral/pbe-u-o/u-6.5

 CP2K| version string:                                       CP2K version 2024.3
 CP2K| source code revision number:                                  git:6712648
 CP2K| cp2kflags: omp libint fftw3 libxc libgrpp elpa parallel scalapack cosma x
 CP2K|            smm plumed2 spglib mkl sirius libvori libbqb libvdwxc hdf5
 CP2K| is freely available from                            https://www.cp2k.org/
 CP2K| Program compiled at                       Thu 12 Sep 2024 10:20:47 AM BST
 CP2K| Program compiled on                                                  ln04
 CP2K| Program compiled for                                                local
 CP2K| Data directory path    /mnt/lustre/a2fs-work1/work/y07/shared/apps/core/c
 CP2K| Input file name                                                 input.inp

 GLOBAL| Force Environment number                                              1
 GLOBAL| Basis set file name                                        BASIS_MOLOPT
 GLOBAL| Potential file name                                      GTH_POTENTIALS
 GLOBAL| MM Potential file name                                     MM_POTENTIAL
 GLOBAL| Coordinate file name                                         system.xyz
 GLOBAL| Method name                                                        CP2K
 GLOBAL| Project name                                                       tio2
 GLOBAL| Run type                                                        GEO_OPT
 GLOBAL| FFT library                                                       FFTW3
 GLOBAL| Diagonalization library                                            ELPA
 GLOBAL| DGEMM library                                                      BLAS
 GLOBAL| Minimum number of eigenvectors for ELPA usage                        16
 GLOBAL| Orthonormality check for eigenvectors                          DISABLED
 GLOBAL| Matrix multiplication library                                     COSMA
 GLOBAL| All-to-all communication in single precision                          F
 GLOBAL| FFTs using library dependent lengths                                  F
 GLOBAL| Grid backend                                                       AUTO
 GLOBAL| Global print level                                               MEDIUM
 GLOBAL| MPI I/O enabled                                                       T
 GLOBAL| Total number of message passing processes                           128
 GLOBAL| Number of threads for this process                                    1
 GLOBAL| This output is from process                                           0
 GLOBAL| Stack size for threads created by OpenMP (OMP_STACKSIZE)        default
 GLOBAL| CPU model name                          AMD EPYC 7742 64-Core Processor
 GLOBAL| CPUID                                                              1002

 MEMORY| system memory details [Kb]
 MEMORY|                        rank 0           min           max       average
 MEMORY| MemTotal            263341976     263341976     263341976     263341976
 MEMORY| MemFree             234697796     234697796     234697796     234697796
 MEMORY| Buffers                     0             0             0             0
 MEMORY| Cached                1815556       1815556       1815556       1815556
 MEMORY| Slab                  6049904       6049892       6049904       6049902
 MEMORY| SReclaimable           906572        906572        906572        906572
 MEMORY| MemLikelyFree       237419924     237419924     237419924     237419924


 *** Fundamental physical constants (SI units) ***

 *** Literature: B. J. Mohr and B. N. Taylor,
 ***             CODATA recommended values of the fundamental physical
 ***             constants: 2006, Web Version 5.1
 ***             http://physics.nist.gov/constants

 Speed of light in vacuum [m/s]                             2.99792458000000E+08
 Magnetic constant or permeability of vacuum [N/A**2]       1.25663706143592E-06
 Electric constant or permittivity of vacuum [F/m]          8.85418781762039E-12
 Planck constant (h) [J*s]                                  6.62606896000000E-34
 Planck constant (h-bar) [J*s]                              1.05457162825177E-34
 Elementary charge [C]                                      1.60217648700000E-19
 Electron mass [kg]                                         9.10938215000000E-31
 Electron g factor [ ]                                     -2.00231930436220E+00
 Proton mass [kg]                                           1.67262163700000E-27
 Fine-structure constant                                    7.29735253760000E-03
 Rydberg constant [1/m]                                     1.09737315685270E+07
 Avogadro constant [1/mol]                                  6.02214179000000E+23
 Boltzmann constant [J/K]                                   1.38065040000000E-23
 Atomic mass unit [kg]                                      1.66053878200000E-27
 Bohr radius [m]                                            5.29177208590000E-11

 *** Conversion factors ***

 [u] -> [a.u.]                                              1.82288848426455E+03
 [Angstrom] -> [Bohr] = [a.u.]                              1.88972613288564E+00
 [a.u.] = [Bohr] -> [Angstrom]                              5.29177208590000E-01
 [a.u.] -> [s]                                              2.41888432650478E-17
 [a.u.] -> [fs]                                             2.41888432650478E-02
 [a.u.] -> [J]                                              4.35974393937059E-18
 [a.u.] -> [N]                                              8.23872205491840E-08
 [a.u.] -> [K]                                              3.15774647902944E+05
 [a.u.] -> [kJ/mol]                                         2.62549961709828E+03
 [a.u.] -> [kcal/mol]                                       6.27509468713739E+02
 [a.u.] -> [Pa]                                             2.94210107994716E+13
 [a.u.] -> [bar]                                            2.94210107994716E+08
 [a.u.] -> [atm]                                            2.90362800883016E+08
 [a.u.] -> [eV]                                             2.72113838565563E+01
 [a.u.] -> [Hz]                                             6.57968392072181E+15
 [a.u.] -> [1/cm] (wave numbers)                            2.19474631370540E+05
 [a.u./Bohr**2] -> [1/cm]                                   5.14048714338585E+03
 

 CELL_TOP| Volume [angstrom^3]:                                      2198.132028
 CELL_TOP| Vector a [angstrom    15.120     0.000     0.000   |a| =    15.120000
 CELL_TOP| Vector b [angstrom     0.000    15.120     0.000   |b| =    15.120000
 CELL_TOP| Vector c [angstrom     0.000     0.000     9.615   |c| =     9.615020
 CELL_TOP| Angle (b,c), alpha [degree]:                                90.000000
 CELL_TOP| Angle (a,c), beta  [degree]:                                90.000000
 CELL_TOP| Angle (a,b), gamma [degree]:                                90.000000
 CELL_TOP| Requested initial symmetry:                       MONOCLINIC_GAMMA_AB
 CELL_TOP| Numerically orthorhombic:                                         YES
 CELL_TOP| Periodicity                                                       XYZ

 *** WARNING in atoms_input.F:123 :: Overwriting coordinates. Active    ***
 *** coordinates read from &COORD section. Active coordinates READ from ***
 *** &COORD section                                                     ***


 GENERATE|  Preliminary Number of Bonds generated:                             0
 GENERATE|  Achieved consistency in connectivity generation.

 CELL| Volume [angstrom^3]:                                          2198.132028
 CELL| Vector a [angstrom]:      15.120     0.000     0.000   |a| =    15.120000
 CELL| Vector b [angstrom]:       0.000    15.120     0.000   |b| =    15.120000
 CELL| Vector c [angstrom]:       0.000     0.000     9.615   |c| =     9.615020
 CELL| Angle (b,c), alpha [degree]:                                    90.000000
 CELL| Angle (a,c), beta  [degree]:                                    90.000000
 CELL| Angle (a,b), gamma [degree]:                                    90.000000
 CELL| Requested initial symmetry:                           MONOCLINIC_GAMMA_AB
 CELL| Numerically orthorhombic:                                             YES
 CELL| Periodicity                                                           XYZ

 CELL_REF| Volume [angstrom^3]:                                      2198.132028
 CELL_REF| Vector a [angstrom    15.120     0.000     0.000   |a| =    15.120000
 CELL_REF| Vector b [angstrom     0.000    15.120     0.000   |b| =    15.120000
 CELL_REF| Vector c [angstrom     0.000     0.000     9.615   |c| =     9.615020
 CELL_REF| Angle (b,c), alpha [degree]:                                90.000000
 CELL_REF| Angle (a,c), beta  [degree]:                                90.000000
 CELL_REF| Angle (a,b), gamma [degree]:                                90.000000
 CELL_REF| Requested initial symmetry:                       MONOCLINIC_GAMMA_AB
 CELL_REF| Numerically orthorhombic:                                         YES
 CELL_REF| Periodicity                                                       XYZ

 *******************************************************************************
 *******************************************************************************
 **                                                                           **
 **     #####                         ##              ##                      **
 **    ##   ##            ##          ##              ##                      **
 **   ##     ##                       ##            ######                    **
 **   ##     ##  ##   ##  ##   #####  ##  ##   ####   ##    #####    #####    **
 **   ##     ##  ##   ##  ##  ##      ## ##   ##      ##   ##   ##  ##   ##   **
 **   ##  ## ##  ##   ##  ##  ##      ####     ###    ##   ######   ######    **
 **    ##  ###   ##   ##  ##  ##      ## ##      ##   ##   ##       ##        **
 **     #######   #####   ##   #####  ##  ##  ####    ##    #####   ##        **
 **           ##                                                    ##        **
 **                                                                           **
 **                                                ... make the atoms dance   **
 **                                                                           **
 **            Copyright (C) by CP2K developers group (2000-2024)             **
 **                      J. Chem. Phys. 152, 194103 (2020)                    **
 **                                                                           **
 *******************************************************************************

 DFT| Spin unrestricted (spin-polarized) Kohn-Sham calculation               UKS
 DFT| Multiplicity                                                             2
 DFT| Number of spin states                                                    2
 DFT| Charge                                                                   1
 DFT| Self-interaction correction (SIC)                                       NO
 DFT| Cutoffs: density                                              1.000000E-10
 DFT|          gradient                                             1.000000E-10
 DFT|          tau                                                  1.000000E-10
 DFT|          cutoff_smoothing_range                               0.000000E+00
 DFT| XC density smoothing                                                  NONE
 DFT| XC derivatives                                                          PW

 DFT+U| Method                                                          MULLIKEN
 DFT+U| Check atomic kind information for details

 FUNCTIONAL| PBE:
 FUNCTIONAL| J.P.Perdew, K.Burke, M.Ernzerhof, Phys. Rev. Letter, vol. 77, n 18,
 FUNCTIONAL|  pp. 3865-3868, (1996) {spin polarized}                            


 QS| Method:                                                                 GPW
 QS| Density plane wave grid type                        NON-SPHERICAL FULLSPACE
 QS| Number of grid levels:                                                    4
 QS| Density cutoff [a.u.]:                                                300.0
 QS| Multi grid cutoff [a.u.]: 1) grid level                               300.0
 QS|                           2) grid level                               100.0
 QS|                           3) grid level                                33.3
 QS|                           4) grid level                                11.1
 QS| Grid level progression factor:                                          3.0
 QS| Relative density cutoff [a.u.]:                                        20.0
 QS| Interaction thresholds: eps_pgf_orb:                                1.0E-06
 QS|                         eps_filter_matrix:                          0.0E+00
 QS|                         eps_core_charge:                            1.0E-14
 QS|                         eps_rho_gspace:                             1.0E-12
 QS|                         eps_rho_rspace:                             1.0E-12
 QS|                         eps_gvg_rspace:                             1.0E-06
 QS|                         eps_ppl:                                    1.0E-02
 QS|                         eps_ppnl:                                   1.0E-08


 ATOMIC KIND INFORMATION

  1. Atomic kind: Ti                                    Number of atoms:      64

     Orbital Basis Set                                    DZVP-MOLOPT-SR-GTH-q12

       Number of orbital shell sets:                                           1
       Number of orbital shells:                                               8
       Number of primitive Cartesian functions:                                6
       Number of Cartesian basis functions:                                   31
       Number of spherical basis functions:                                   26
       Norm type:                                                              2

       Normalised Cartesian orbitals:

                        Set   Shell   Orbital            Exponent    Coefficient

                          1       1    2s                7.884570       0.015554
                                                         3.894698       0.963603
                                                         1.513589      -0.631435
                                                         0.596768      -0.343022
                                                         0.222222      -0.006534
                                                         0.077078       0.007652

                          1       2    3s                7.884570      -0.009340
                                                         3.894698       0.212624
                                                         1.513589      -0.258368
                                                         0.596768      -0.226206
                                                         0.222222       0.039438
                                                         0.077078       0.107179

                          1       3    4s                7.884570       0.276563
                                                         3.894698       0.105452
                                                         1.513589       0.085149
                                                         0.596768       0.882541
                                                         0.222222      -0.696223
                                                         0.077078       0.156638

                          1       4    3px               7.884570      -2.034794
                                                         3.894698       0.782008
                                                         1.513589       1.253903
                                                         0.596768       0.347823
                                                         0.222222       0.016778
                                                         0.077078      -0.000433
                          1       4    3py               7.884570      -2.034794
                                                         3.894698       0.782008
                                                         1.513589       1.253903
                                                         0.596768       0.347823
                                                         0.222222       0.016778
                                                         0.077078      -0.000433
                          1       4    3pz               7.884570      -2.034794
                                                         3.894698       0.782008
                                                         1.513589       1.253903
                                                         0.596768       0.347823
                                                         0.222222       0.016778
                                                         0.077078      -0.000433

                          1       5    4px               7.884570       0.376572
                                                         3.894698      -0.182875
                                                         1.513589      -0.474776
                                                         0.596768      -0.081757
                                                         0.222222       0.064432
                                                         0.077078       0.047279
                          1       5    4py               7.884570       0.376572
                                                         3.894698      -0.182875
                                                         1.513589      -0.474776
                                                         0.596768      -0.081757
                                                         0.222222       0.064432
                                                         0.077078       0.047279
                          1       5    4pz               7.884570       0.376572
                                                         3.894698      -0.182875
                                                         1.513589      -0.474776
                                                         0.596768      -0.081757
                                                         0.222222       0.064432
                                                         0.077078       0.047279

                          1       6    4dx2              7.884570       3.047350
                                                         3.894698       3.289529
                                                         1.513589       1.060616
                                                         0.596768       0.249930
                                                         0.222222       0.038806
                                                         0.077078       0.002319
                          1       6    4dxy              7.884570       5.278165
                                                         3.894698       5.697631
                                                         1.513589       1.837041
                                                         0.596768       0.432892
                                                         0.222222       0.067214
                                                         0.077078       0.004017
                          1       6    4dxz              7.884570       5.278165
                                                         3.894698       5.697631
                                                         1.513589       1.837041
                                                         0.596768       0.432892
                                                         0.222222       0.067214
                                                         0.077078       0.004017
                          1       6    4dy2              7.884570       3.047350
                                                         3.894698       3.289529
                                                         1.513589       1.060616
                                                         0.596768       0.249930
                                                         0.222222       0.038806
                                                         0.077078       0.002319
                          1       6    4dyz              7.884570       5.278165
                                                         3.894698       5.697631
                                                         1.513589       1.837041
                                                         0.596768       0.432892
                                                         0.222222       0.067214
                                                         0.077078       0.004017
                          1       6    4dz2              7.884570       3.047350
                                                         3.894698       3.289529
                                                         1.513589       1.060616
                                                         0.596768       0.249930
                                                         0.222222       0.038806
                                                         0.077078       0.002319

                          1       7    5dx2              7.884570      -2.119015
                                                         3.894698      -1.237751
                                                         1.513589      -0.746777
                                                         0.596768      -0.071514
                                                         0.222222       0.004086
                                                         0.077078       0.017595
                          1       7    5dxy              7.884570      -3.670241
                                                         3.894698      -2.143848
                                                         1.513589      -1.293455
                                                         0.596768      -0.123865
                                                         0.222222       0.007077
                                                         0.077078       0.030475
                          1       7    5dxz              7.884570      -3.670241
                                                         3.894698      -2.143848
                                                         1.513589      -1.293455
                                                         0.596768      -0.123865
                                                         0.222222       0.007077
                                                         0.077078       0.030475
                          1       7    5dy2              7.884570      -2.119015
                                                         3.894698      -1.237751
                                                         1.513589      -0.746777
                                                         0.596768      -0.071514
                                                         0.222222       0.004086
                                                         0.077078       0.017595
                          1       7    5dyz              7.884570      -3.670241
                                                         3.894698      -2.143848
                                                         1.513589      -1.293455
                                                         0.596768      -0.123865
                                                         0.222222       0.007077
                                                         0.077078       0.030475
                          1       7    5dz2              7.884570      -2.119015
                                                         3.894698      -1.237751
                                                         1.513589      -0.746777
                                                         0.596768      -0.071514
                                                         0.222222       0.004086
                                                         0.077078       0.017595

                          1       8    5fx3              7.884570      -0.342058
                                                         3.894698       0.375798
                                                         1.513589      -0.706469
                                                         0.596768      -0.229994
                                                         0.222222      -0.012723
                                                         0.077078       0.003932
                          1       8    5fx2y             7.884570      -0.764866
                                                         3.894698       0.840310
                                                         1.513589      -1.579712
                                                         0.596768      -0.514282
                                                         0.222222      -0.028450
                                                         0.077078       0.008792
                          1       8    5fx2z             7.884570      -0.764866
                                                         3.894698       0.840310
                                                         1.513589      -1.579712
                                                         0.596768      -0.514282
                                                         0.222222      -0.028450
                                                         0.077078       0.008792
                          1       8    5fxy2             7.884570      -0.764866
                                                         3.894698       0.840310
                                                         1.513589      -1.579712
                                                         0.596768      -0.514282
                                                         0.222222      -0.028450
                                                         0.077078       0.008792
                          1       8    5fxyz             7.884570      -1.324787
                                                         3.894698       1.455460
                                                         1.513589      -2.736142
                                                         0.596768      -0.890763
                                                         0.222222      -0.049276
                                                         0.077078       0.015229
                          1       8    5fxz2             7.884570      -0.764866
                                                         3.894698       0.840310
                                                         1.513589      -1.579712
                                                         0.596768      -0.514282
                                                         0.222222      -0.028450
                                                         0.077078       0.008792
                          1       8    5fy3              7.884570      -0.342058
                                                         3.894698       0.375798
                                                         1.513589      -0.706469
                                                         0.596768      -0.229994
                                                         0.222222      -0.012723
                                                         0.077078       0.003932
                          1       8    5fy2z             7.884570      -0.764866
                                                         3.894698       0.840310
                                                         1.513589      -1.579712
                                                         0.596768      -0.514282
                                                         0.222222      -0.028450
                                                         0.077078       0.008792
                          1       8    5fyz2             7.884570      -0.764866
                                                         3.894698       0.840310
                                                         1.513589      -1.579712
                                                         0.596768      -0.514282
                                                         0.222222      -0.028450
                                                         0.077078       0.008792
                          1       8    5fz3              7.884570      -0.342058
                                                         3.894698       0.375798
                                                         1.513589      -0.706469
                                                         0.596768      -0.229994
                                                         0.222222      -0.012723
                                                         0.077078       0.003932

       Atomic covalent radius [Angstrom]:                                  1.320

       Atomic van der Waals radius [Angstrom]:                             1.760

     GTH Potential information for                                   GTH-PBE-q12

       Description:                       Goedecker-Teter-Hutter pseudopotential
                                           Goedecker et al., PRB 54, 1703 (1996)
                                          Hartwigsen et al., PRB 58, 3641 (1998)
                                                      Krack, TCA 114, 145 (2005)

       Gaussian exponent of the core charge distribution:               3.462604
       Electronic configuration (s p d ...):                           4   6   2

       Parameters of the local part of the GTH pseudopotential:

                          rloc        C1          C2          C3          C4
                        0.380000    8.711442   -0.700287

       Parameters of the non-local part of the GTH pseudopotential:

                   l      r(l)      h(i,j,l)

                   0    0.337771    2.575264    3.692971
                                    3.692971   -4.767605
                   1    0.242531   -4.630541    8.870875
                                    8.870875  -10.496161
                   2    0.243317   -9.406653

  2. Atomic kind: O                                     Number of atoms:     128

     Orbital Basis Set                                     DZVP-MOLOPT-SR-GTH-q6

       Number of orbital shell sets:                                           1
       Number of orbital shells:                                               5
       Number of primitive Cartesian functions:                                5
       Number of Cartesian basis functions:                                   14
       Number of spherical basis functions:                                   13
       Norm type:                                                              2

       Normalised Cartesian orbitals:

                        Set   Shell   Orbital            Exponent    Coefficient

                          1       1    2s               10.389228       0.396646
                                                         3.849621       0.208811
                                                         1.388401      -0.301641
                                                         0.496955      -0.274061
                                                         0.162492      -0.033677

                          1       2    3s               10.389228       0.303673
                                                         3.849621       0.240943
                                                         1.388401      -0.313066
                                                         0.496955      -0.043055
                                                         0.162492       0.213991

                          1       3    3px              10.389228      -1.530415
                                                         3.849621      -1.371928
                                                         1.388401      -0.761951
                                                         0.496955      -0.253695
                                                         0.162492      -0.035541
                          1       3    3py              10.389228      -1.530415
                                                         3.849621      -1.371928
                                                         1.388401      -0.761951
                                                         0.496955      -0.253695
                                                         0.162492      -0.035541
                          1       3    3pz              10.389228      -1.530415
                                                         3.849621      -1.371928
                                                         1.388401      -0.761951
                                                         0.496955      -0.253695
                                                         0.162492      -0.035541

                          1       4    4px              10.389228      -0.565392
                                                         3.849621      -0.038231
                                                         1.388401      -0.382373
                                                         0.496955       0.179070
                                                         0.162492       0.122714
                          1       4    4py              10.389228      -0.565392
                                                         3.849621      -0.038231
                                                         1.388401      -0.382373
                                                         0.496955       0.179070
                                                         0.162492       0.122714
                          1       4    4pz              10.389228      -0.565392
                                                         3.849621      -0.038231
                                                         1.388401      -0.382373
                                                         0.496955       0.179070
                                                         0.162492       0.122714

                          1       5    4dx2             10.389228       1.867377
                                                         3.849621       0.670994
                                                         1.388401       1.353441
                                                         0.496955       0.273538
                                                         0.162492       0.006620
                          1       5    4dxy             10.389228       3.234392
                                                         3.849621       1.162195
                                                         1.388401       2.344229
                                                         0.496955       0.473781
                                                         0.162492       0.011466
                          1       5    4dxz             10.389228       3.234392
                                                         3.849621       1.162195
                                                         1.388401       2.344229
                                                         0.496955       0.473781
                                                         0.162492       0.011466
                          1       5    4dy2             10.389228       1.867377
                                                         3.849621       0.670994
                                                         1.388401       1.353441
                                                         0.496955       0.273538
                                                         0.162492       0.006620
                          1       5    4dyz             10.389228       3.234392
                                                         3.849621       1.162195
                                                         1.388401       2.344229
                                                         0.496955       0.473781
                                                         0.162492       0.011466
                          1       5    4dz2             10.389228       1.867377
                                                         3.849621       0.670994
                                                         1.388401       1.353441
                                                         0.496955       0.273538
                                                         0.162492       0.006620

       Atomic covalent radius [Angstrom]:                                  0.730

       Atomic van der Waals radius [Angstrom]:                             1.520

     GTH Potential information for                                    GTH-PBE-q6

       Description:                       Goedecker-Teter-Hutter pseudopotential
                                           Goedecker et al., PRB 54, 1703 (1996)
                                          Hartwigsen et al., PRB 58, 3641 (1998)
                                                      Krack, TCA 114, 145 (2005)

       Gaussian exponent of the core charge distribution:               8.360253
       Electronic configuration (s p d ...):                               2   4

       Parameters of the local part of the GTH pseudopotential:

                          rloc        C1          C2          C3          C4
                        0.244554  -16.667215    2.487311

       Parameters of the non-local part of the GTH pseudopotential:

                   l      r(l)      h(i,j,l)

                   0    0.220956   18.337458
                   1    0.211332

     A DFT+U correction is applied to atoms of this atomic kind:
       Angular quantum momentum number L:                                      1
       U(eff) = (U - J) value in [eV]:                                     6.500


 MOLECULE KIND INFORMATION


 All atoms are their own molecule, skipping detailed information


 TOTAL NUMBERS AND MAXIMUM NUMBERS

  Total number of            - Atomic kinds:                                   2
                             - Atoms:                                        192
                             - Shell sets:                                   192
                             - Shells:                                      1152
                             - Primitive Cartesian functions:               1024
                             - Cartesian basis functions:                   3776
                             - Spherical basis functions:                   3328

  Maximum angular momentum of- Orbital basis functions:                        3
                             - Local part of the GTH pseudopotential:          2
                             - Non-local part of the GTH pseudopotential:      3


 MODULE QUICKSTEP: ATOMIC COORDINATES IN ANGSTROM

   Atom Kind Element         X             Y             Z       Z(eff)     Mass
      1    1 Ti   22      0.000952      0.000952      0.000004  12.0000  47.8670
      2    1 Ti   22      1.888209      1.888210      4.807512  12.0000  47.8670
      3    1 Ti   22      0.000922      1.888241      2.401889  12.0000  47.8670
      4    1 Ti   22      1.888241      0.000920      7.213141  12.0000  47.8670
      5    1 Ti   22      0.000922      3.776190      0.002395  12.0000  47.8670
      6    1 Ti   22      1.888244     13.237674      4.805606  12.0000  47.8670
      7    1 Ti   22     11.350441      1.888214      2.403704  12.0000  47.8670
      8    1 Ti   22      5.668116      0.000882      7.217428  12.0000  47.8670
      9    1 Ti   22      1.888186      3.776162      7.210698  12.0000  47.8670
     10    1 Ti   22      0.000950     13.237649      2.403808  12.0000  47.8670
     11    1 Ti   22      5.668116      1.888178      4.803252  12.0000  47.8670
     12    1 Ti   22     11.350413      0.000926     -0.001824  12.0000  47.8670
     13    1 Ti   22      3.776192      0.000929     -0.002392  12.0000  47.8670
     14    1 Ti   22     13.237675      1.888241      4.809422  12.0000  47.8670
     15    1 Ti   22     13.237652      0.000948      7.211222  12.0000  47.8670
     16    1 Ti   22      3.776166      1.888193      2.404323  12.0000  47.8670
     17    1 Ti   22      1.888178      5.668117      4.811767  12.0000  47.8670
     18    1 Ti   22      0.000924     11.350415      0.001829  12.0000  47.8670
     19    1 Ti   22      0.000883      5.668115      2.397592  12.0000  47.8670
     20    1 Ti   22      1.888215     11.350440      7.211329  12.0000  47.8670
     21    1 Ti   22      0.000889      7.570674      0.006137  12.0000  47.8670
     22    1 Ti   22      1.888188      9.462571      4.808013  12.0000  47.8670
     23    1 Ti   22      7.570672      1.888186      2.407986  12.0000  47.8670
     24    1 Ti   22      9.462547      0.000917      7.213585  12.0000  47.8670
     25    1 Ti   22      1.888182      7.570664      7.207037  12.0000  47.8670
     26    1 Ti   22      0.000922      9.462545      2.401441  12.0000  47.8670
     27    1 Ti   22      9.462568      1.888192      4.807020  12.0000  47.8670
     28    1 Ti   22      7.570671      0.000893     -0.006140  12.0000  47.8670
     29    1 Ti   22      3.776136      3.776141     -0.000003  12.0000  47.8670
     30    1 Ti   22     13.237651     13.237649      4.807514  12.0000  47.8670
     31    1 Ti   22     11.350458      5.668119      2.399455  12.0000  47.8670
     32    1 Ti   22      5.668121     11.350456      7.215569  12.0000  47.8670
     33    1 Ti   22     13.237668      3.776187      7.208833  12.0000  47.8670
     34    1 Ti   22      3.776186     13.237673      2.406191  12.0000  47.8670
     35    1 Ti   22      5.667948      5.667953      4.807510  12.0000  47.8670
     36    1 Ti   22     11.350443     11.350446      0.000002  12.0000  47.8670
     37    1 Ti   22     11.350412     13.237678      2.405623  12.0000  47.8670
     38    1 Ti   22      5.668045      3.776123      7.215014  12.0000  47.8670
     39    1 Ti   22      3.776177     11.350465     -0.000611  12.0000  47.8670
     40    1 Ti   22     13.237701      5.668115      4.813717  12.0000  47.8670
     41    1 Ti   22      5.668119     13.237700      4.801305  12.0000  47.8670
     42    1 Ti   22     11.350455      3.776173      0.000619  12.0000  47.8670
     43    1 Ti   22     13.237676     11.350407      7.209405  12.0000  47.8670
     44    1 Ti   22      3.776121      5.668045      2.399999  12.0000  47.8670
     45    1 Ti   22      3.776131      7.570734      0.003732  12.0000  47.8670
     46    1 Ti   22     13.237670      9.462544      4.809872  12.0000  47.8670
     47    1 Ti   22      7.570806      5.667952      2.403741  12.0000  47.8670
     48    1 Ti   22      9.462566     11.350452      7.211810  12.0000  47.8670
     49    1 Ti   22     13.237701      7.570667      7.205093  12.0000  47.8670
     50    1 Ti   22      3.776131      9.462589      2.403834  12.0000  47.8670
     51    1 Ti   22      9.462593      5.668049      4.811350  12.0000  47.8670
     52    1 Ti   22      7.570673     11.350465     -0.004274  12.0000  47.8670
     53    1 Ti   22     11.350455      9.462567      2.403209  12.0000  47.8670
     54    1 Ti   22      5.667953      7.570805      7.211284  12.0000  47.8670
     55    1 Ti   22      5.668049      9.462596      4.803671  12.0000  47.8670
     56    1 Ti   22     11.350459      7.570670      0.004279  12.0000  47.8670
     57    1 Ti   22      9.462589      3.776132      7.211194  12.0000  47.8670
     58    1 Ti   22      7.570670     13.237708      2.409933  12.0000  47.8670
     59    1 Ti   22      7.570721      3.776135     -0.003730  12.0000  47.8670
     60    1 Ti   22      9.462546     13.237670      4.805155  12.0000  47.8670
     61    1 Ti   22      7.570804      7.570805      0.000003  12.0000  47.8670
     62    1 Ti   22      9.462590      9.462589      4.807507  12.0000  47.8670
     63    1 Ti   22      7.570721      9.462593      2.407558  12.0000  47.8670
     64    1 Ti   22      9.462589      7.570721      7.207463  12.0000  47.8670
     65    2 O     8      0.000687      0.001395      1.982405   6.0000  15.9994
     66    2 O     8      1.884913      1.887441      6.789520   6.0000  15.9994
     67    2 O     8      0.001380      1.884903      4.386200   6.0000  15.9994
     68    2 O     8      1.887463      0.000686      9.193159   6.0000  15.9994
     69    2 O     8      1.884903      0.001381      5.228832   6.0000  15.9994
     70    2 O     8      0.000686      1.887462      0.421874   6.0000  15.9994
     71    2 O     8      1.887439      1.884911      2.825510   6.0000  15.9994
     72    2 O     8      0.001396      0.000689      7.632626   6.0000  15.9994
     73    2 O     8      0.000692      3.775861      1.978120   6.0000  15.9994
     74    2 O     8      1.884903     13.237164      6.789949   6.0000  15.9994
     75    2 O     8     11.351157      1.884911      4.385840   6.0000  15.9994
     76    2 O     8      5.672504      0.000646      9.195633   6.0000  15.9994
     77    2 O     8      1.884926      3.775810      5.233005   6.0000  15.9994
     78    2 O     8      0.000688     13.237148      0.421381   6.0000  15.9994
     79    2 O     8      5.672467      1.884878      2.823268   6.0000  15.9994
     80    2 O     8     11.351137      0.000687      7.633043   6.0000  15.9994
     81    2 O     8      3.775861      0.000694      7.636906   6.0000  15.9994
     82    2 O     8     13.237161      1.884905      2.825083   6.0000  15.9994
     83    2 O     8     13.237150      0.000687      9.193647   6.0000  15.9994
     84    2 O     8      3.775809      1.884926      4.382015   6.0000  15.9994
     85    2 O     8      1.884878      5.672469      6.791752   6.0000  15.9994
     86    2 O     8      0.000685     11.351134      1.981987   6.0000  15.9994
     87    2 O     8      0.000647      5.672503      0.419388   6.0000  15.9994
     88    2 O     8      1.884909     11.351160      5.229192   6.0000  15.9994
     89    2 O     8      0.000644      7.566392      1.984459   6.0000  15.9994
     90    2 O     8      1.884927      9.462849      6.785915   6.0000  15.9994
     91    2 O     8      7.566435      1.884883      4.388098   6.0000  15.9994
     92    2 O     8      9.462800      0.000693      9.189511   6.0000  15.9994
     93    2 O     8      1.884878      7.566436      5.226925   6.0000  15.9994
     94    2 O     8      0.000691      9.462798      0.425514   6.0000  15.9994
     95    2 O     8      9.462848      1.884926      2.829115   6.0000  15.9994
     96    2 O     8      7.566392      0.000648      7.630563   6.0000  15.9994
     97    2 O     8      3.769329      0.001359      1.983386   6.0000  15.9994
     98    2 O     8     13.237806      1.887466      6.789383   6.0000  15.9994
     99    2 O     8      0.001343      5.654934      4.386634   6.0000  15.9994
    100    2 O     8      1.887441     11.353627      9.193286   6.0000  15.9994
    101    2 O     8     13.237805      0.001396      5.228879   6.0000  15.9994
    102    2 O     8      3.769372      1.887429      0.420927   6.0000  15.9994
    103    2 O     8      1.887407      5.655039      2.825204   6.0000  15.9994
    104    2 O     8      0.001381     11.353638      7.632591   6.0000  15.9994
    105    2 O     8     11.353627      1.887440      0.421748   6.0000  15.9994
    106    2 O     8      5.654950      0.001344      5.228387   6.0000  15.9994
    107    2 O     8      5.655031      1.887408      6.789813   6.0000  15.9994
    108    2 O     8     11.353639      0.001381      1.982440   6.0000  15.9994
    109    2 O     8      1.887428      3.769373      9.194090   6.0000  15.9994
    110    2 O     8      0.001396     13.237805      4.386146   6.0000  15.9994
    111    2 O     8      0.001358      3.769330      7.631632   6.0000  15.9994
    112    2 O     8      1.887465     13.237807      2.825642   6.0000  15.9994
    113    2 O     8      3.769345      3.775794      1.979155   6.0000  15.9994
    114    2 O     8     13.237805     13.237150      6.789881   6.0000  15.9994
    115    2 O     8     11.351183      5.655022      4.386151   6.0000  15.9994
    116    2 O     8      5.672471     11.353657      9.195510   6.0000  15.9994
    117    2 O     8     13.237800      3.775864      5.233160   6.0000  15.9994
    118    2 O     8      3.769333     13.237178      0.420377   6.0000  15.9994
    119    2 O     8      5.672479      5.654878      2.822720   6.0000  15.9994
    120    2 O     8     11.351156     11.353630      7.632933   6.0000  15.9994
    121    2 O     8     11.353635     13.237161      0.421329   6.0000  15.9994
    122    2 O     8      5.654977      3.775775      5.232679   6.0000  15.9994
    123    2 O     8      3.775813     11.353613      7.636765   6.0000  15.9994
    124    2 O     8     13.237189      5.654952      2.824636   6.0000  15.9994
    125    2 O     8      5.654944     13.237190      6.790383   6.0000  15.9994
    126    2 O     8     11.353610      3.775813      1.978260   6.0000  15.9994
    127    2 O     8     13.237160     11.353638      9.193699   6.0000  15.9994
    128    2 O     8      3.775771      5.654978      4.382344   6.0000  15.9994
    129    2 O     8      5.654883      5.672488      6.792302   6.0000  15.9994
    130    2 O     8     11.353630     11.351157      1.982090   6.0000  15.9994
    131    2 O     8     13.237179      3.769332      9.194649   6.0000  15.9994
    132    2 O     8      3.775862     13.237801      4.381861   6.0000  15.9994
    133    2 O     8     11.353656      5.672469      0.419515   6.0000  15.9994
    134    2 O     8      5.655038     11.351184      5.228871   6.0000  15.9994
    135    2 O     8      3.775796      3.769350      7.635861   6.0000  15.9994
    136    2 O     8     13.237147     13.237804      2.825145   6.0000  15.9994
    137    2 O     8     13.237808     11.351136      5.229309   6.0000  15.9994
    138    2 O     8      3.769293      5.672461      0.418568   6.0000  15.9994
    139    2 O     8      5.672505     13.237846      2.823157   6.0000  15.9994
    140    2 O     8     11.351163      3.769373      7.632114   6.0000  15.9994
    141    2 O     8      3.769372     11.351165      1.982914   6.0000  15.9994
    142    2 O     8     13.237844      5.672506      6.791866   6.0000  15.9994
    143    2 O     8     11.351135     13.237808      4.385720   6.0000  15.9994
    144    2 O     8      5.672459      3.769295      9.196457   6.0000  15.9994
    145    2 O     8      3.769299      7.566427      1.985296   6.0000  15.9994
    146    2 O     8     13.237801      9.462800      6.785752   6.0000  15.9994
    147    2 O     8      7.566391      5.654879      4.388666   6.0000  15.9994
    148    2 O     8      9.462844     11.353612      9.189667   6.0000  15.9994
    149    2 O     8     13.237848      7.566396      5.226822   6.0000  15.9994
    150    2 O     8      3.769354      9.462850      0.424477   6.0000  15.9994
    151    2 O     8      9.462863      5.654994      2.828809   6.0000  15.9994
    152    2 O     8      7.566430     11.353657      7.630678   6.0000  15.9994
    153    2 O     8     11.353612      9.462843      0.425357   6.0000  15.9994
    154    2 O     8      5.654887      7.566398      5.226357   6.0000  15.9994
    155    2 O     8      5.654985      9.462867      6.786213   6.0000  15.9994
    156    2 O     8     11.353657      7.566430      1.984344   6.0000  15.9994
    157    2 O     8      9.462849      3.769353      9.190553   6.0000  15.9994
    158    2 O     8      7.566394     13.237845      4.388203   6.0000  15.9994
    159    2 O     8      7.566424      3.769299      7.629729   6.0000  15.9994
    160    2 O     8      9.462797     13.237800      2.829283   6.0000  15.9994
    161    2 O     8      7.583598      0.001344      1.982883   6.0000  15.9994
    162    2 O     8      9.469187      1.887433      6.790302   6.0000  15.9994
    163    2 O     8      0.001360      9.469231      4.387116   6.0000  15.9994
    164    2 O     8      1.887408      7.583523      9.193575   6.0000  15.9994
    165    2 O     8      9.469230      0.001362      5.227917   6.0000  15.9994
    166    2 O     8      7.583511      1.887408      0.421447   6.0000  15.9994
    167    2 O     8      1.887429      9.469188      2.824732   6.0000  15.9994
    168    2 O     8      0.001344      7.583588      7.632137   6.0000  15.9994
    169    2 O     8      7.583554      3.775775      1.978593   6.0000  15.9994
    170    2 O     8      9.469227     13.237180      6.790858   6.0000  15.9994
    171    2 O     8     11.351163      9.469193      4.386627   6.0000  15.9994
    172    2 O     8      5.672481      7.583655      9.196045   6.0000  15.9994
    173    2 O     8      9.469216      3.775799      5.232152   6.0000  15.9994
    174    2 O     8      7.583599     13.237190      0.420877   6.0000  15.9994
    175    2 O     8      5.672462      9.469268      2.822349   6.0000  15.9994
    176    2 O     8     11.351181      7.583503      7.632624   6.0000  15.9994
    177    2 O     8      3.775777      7.583543      7.636429   6.0000  15.9994
    178    2 O     8     13.237179      9.469228      2.824172   6.0000  15.9994
    179    2 O     8     13.237191      7.583604      9.194142   6.0000  15.9994
    180    2 O     8      3.775799      9.469218      4.382880   6.0000  15.9994
    181    2 O     8      9.469265      5.672464      6.792671   6.0000  15.9994
    182    2 O     8      7.583509     11.351180      1.982396   6.0000  15.9994
    183    2 O     8      7.583650      5.672479      0.418978   6.0000  15.9994
    184    2 O     8      9.469190     11.351165      5.228401   6.0000  15.9994
    185    2 O     8      7.583636      7.566387      1.984896   6.0000  15.9994
    186    2 O     8      9.469206      9.462850      6.786758   6.0000  15.9994
    187    2 O     8      7.566428      9.469266      4.389012   6.0000  15.9994
    188    2 O     8      9.462863      7.583550      9.189980   6.0000  15.9994
    189    2 O     8      9.469262      7.566429      5.226005   6.0000  15.9994
    190    2 O     8      7.583550      9.462860      0.425043   6.0000  15.9994
    191    2 O     8      9.462850      9.469210      2.828259   6.0000  15.9994
    192    2 O     8      7.566392      7.583636      7.630130   6.0000  15.9994



 SCF PARAMETERS         Density guess:                                   RESTART
                        --------------------------------------------------------
                        max_scf:                                              40
                        max_scf_history:                                       0
                        max_diis:                                              4
                        --------------------------------------------------------
                        eps_scf:                                        1.00E-06
                        eps_scf_history:                                0.00E+00
                        eps_diis:                                       1.00E-01
                        eps_eigval:                                     1.00E-05
                        --------------------------------------------------------
                        level_shift [a.u.]:                             0.000000
                        --------------------------------------------------------
                        Outer loop SCF in use 
                        No variables optimised in outer loop
                        eps_scf                                         1.00E-06
                        max_scf                                               60
                        No outer loop optimization
                        step_size                                       5.00E-01

 PW_GRID| Information for grid number                                          1
 PW_GRID| Grid distributed over                                   128 processors
 PW_GRID| Real space group dimensions                                   128    1
 PW_GRID| the grid is blocked:                                                NO
 PW_GRID| Cutoff [a.u.]                                                    300.0
 PW_GRID| spherical cutoff:                                                   NO
 PW_GRID|   Bounds   1           -112     112                Points:         225
 PW_GRID|   Bounds   2           -112     112                Points:         225
 PW_GRID|   Bounds   3            -72      71                Points:         144
 PW_GRID| Volume element (a.u.^3)  0.2035E-02     Volume (a.u.^3)     14833.7304
 PW_GRID| Grid span                                                    FULLSPACE
 PW_GRID|   Distribution                         Average         Max         Min
 PW_GRID|   G-Vectors                            56953.1       57150       56925
 PW_GRID|   G-Rays                                 253.1         254         253
 PW_GRID|   Real Space Points                    56953.1       64800       32400

 PW_GRID| Information for grid number                                          2
 PW_GRID| Number of the reference grid                                         1
 PW_GRID| Grid distributed over                                   128 processors
 PW_GRID| Real space group dimensions                                   128    1
 PW_GRID| the grid is blocked:                                                NO
 PW_GRID| Cutoff [a.u.]                                                    100.0
 PW_GRID| spherical cutoff:                                                   NO
 PW_GRID|   Bounds   1            -67      67                Points:         135
 PW_GRID|   Bounds   2            -67      67                Points:         135
 PW_GRID|   Bounds   3            -40      40                Points:          81
 PW_GRID| Volume element (a.u.^3)  0.1005E-01     Volume (a.u.^3)     14833.7304
 PW_GRID| Grid span                                                    FULLSPACE
 PW_GRID|   Distribution                         Average         Max         Min
 PW_GRID|   G-Vectors                            11533.0       12150       10800
 PW_GRID|   G-Rays                                  85.4          90          80
 PW_GRID|   Real Space Points                    11533.0       21870       10935

 PW_GRID| Information for grid number                                          3
 PW_GRID| Number of the reference grid                                         1
 PW_GRID| Grid distributed over                                   128 processors
 PW_GRID| Real space group dimensions                                     8   16
 PW_GRID| the grid is blocked:                                                NO
 PW_GRID| Cutoff [a.u.]                                                     33.3
 PW_GRID| spherical cutoff:                                                   NO
 PW_GRID|   Bounds   1            -37      37                Points:          75
 PW_GRID|   Bounds   2            -37      37                Points:          75
 PW_GRID|   Bounds   3            -24      23                Points:          48
 PW_GRID| Volume element (a.u.^3)  0.5494E-01     Volume (a.u.^3)     14833.7304
 PW_GRID| Grid span                                                    FULLSPACE
 PW_GRID|   Distribution                         Average         Max         Min
 PW_GRID|   G-Vectors                             2109.4        2475        1725
 PW_GRID|   G-Rays                                  28.1          33          23
 PW_GRID|   Real Space Points                     2109.4        2400        1728

 PW_GRID| Information for grid number                                          4
 PW_GRID| Number of the reference grid                                         1
 PW_GRID| Grid distributed over                                   128 processors
 PW_GRID| Real space group dimensions                                     8   16
 PW_GRID| the grid is blocked:                                                NO
 PW_GRID| Cutoff [a.u.]                                                     11.1
 PW_GRID| spherical cutoff:                                                   NO
 PW_GRID|   Bounds   1            -22      22                Points:          45
 PW_GRID|   Bounds   2            -22      22                Points:          45
 PW_GRID|   Bounds   3            -13      13                Points:          27
 PW_GRID| Volume element (a.u.^3)  0.2713         Volume (a.u.^3)     14833.7304
 PW_GRID| Grid span                                                    FULLSPACE
 PW_GRID|   Distribution                         Average         Max         Min
 PW_GRID|   G-Vectors                              427.1         585         270
 PW_GRID|   G-Rays                                   9.5          13           6
 PW_GRID|   Real Space Points                      427.1         486         270

 POISSON| Solver                                                        PERIODIC
 POISSON| Periodicity                                                        XYZ

 RS_GRID| Information for grid number                                          1
 RS_GRID|   Bounds   1           -112     112                Points:         225
 RS_GRID|   Bounds   2           -112     112                Points:         225
 RS_GRID|   Bounds   3            -72      71                Points:         144
 RS_GRID| Real space distribution over                                  8 groups
 RS_GRID| Real space distribution along direction                              1
 RS_GRID| Border size                                                         26
 RS_GRID| Real space distribution over                                 16 groups
 RS_GRID| Real space distribution along direction                              2
 RS_GRID| Border size                                                         26
 RS_GRID|   Distribution                         Average         Max         Min
 RS_GRID|   Planes                                  80.1          81          80
 RS_GRID|   Distribution                         Average         Max         Min
 RS_GRID|   Planes                                  66.1          67          66

 RS_GRID| Information for grid number                                          2
 RS_GRID|   Bounds   1            -67      67                Points:         135
 RS_GRID|   Bounds   2            -67      67                Points:         135
 RS_GRID|   Bounds   3            -40      40                Points:          81
 RS_GRID| Real space distribution over                                  8 groups
 RS_GRID| Real space distribution along direction                              1
 RS_GRID| Border size                                                         24
 RS_GRID| Real space distribution over                                 16 groups
 RS_GRID| Real space distribution along direction                              2
 RS_GRID| Border size                                                         24
 RS_GRID|   Distribution                         Average         Max         Min
 RS_GRID|   Planes                                  64.9          65          64
 RS_GRID|   Distribution                         Average         Max         Min
 RS_GRID|   Planes                                  56.4          57          56

 RS_GRID| Information for grid number                                          3
 RS_GRID|   Bounds   1            -37      37                Points:          75
 RS_GRID|   Bounds   2            -37      37                Points:          75
 RS_GRID|   Bounds   3            -24      23                Points:          48
 RS_GRID| Real space fully replicated
 RS_GRID| Group size                                                           1

 RS_GRID| Information for grid number                                          4
 RS_GRID|   Bounds   1            -22      22                Points:          45
 RS_GRID|   Bounds   2            -22      22                Points:          45
 RS_GRID|   Bounds   3            -13      13                Points:          27
 RS_GRID| Real space fully replicated
 RS_GRID| Group size                                                           1

 BFGS| Use rational function optimization for step estimation:                NO
 BFGS| Use model Hessian for initial guess:                                  YES
 BFGS| Restart Hessian:                                                       NO
 BFGS| Trust radius:                                                       0.472

 *******************************************************************************
 ***                     STARTING GEOMETRY OPTIMIZATION                      ***
 ***                                   BFGS                                  ***
 *******************************************************************************

 Spin 1

 Number of electrons:                                                        768
 Number of occupied orbitals:                                                768
 Number of molecular orbitals:                                               768

 Spin 2

 Number of electrons:                                                        767
 Number of occupied orbitals:                                                767
 Number of molecular orbitals:                                               767

 Number of orbital functions:                                               3328
 Number of independent orbital functions:                                   3328

 Extrapolation method: initial_guess

 *** WARNING in qs_initial_guess.F:306 :: User requested to restart the    ***
 *** wavefunction from the file named: tio2-RESTART.wfn. This file does    ***
 *** not exist. Please check the existence of the file or change properly  ***
 *** the value of the keyword WFN_RESTART_FILE_NAME. Calculation continues ***
 *** using ATOMIC GUESS.                                                   ***


 Atomic guess: The first density matrix is obtained in terms of atomic orbitals
               and electronic configurations assigned to each atomic kind

 Guess for atomic kind: Ti

 Electronic structure
    Total number of core electrons                                         10.00
    Total number of valence electrons                                      12.00
    Total number of electrons                                              22.00
    Multiplicity                                                   not specified
    S   [  2.00  2.00] 2.00  2.00
    P   [  6.00] 6.00
    D      2.00


 *******************************************************************************
                  Iteration          Convergence                     Energy [au]
 *******************************************************************************
                          1         2.59099                     -56.573945749309
                          2        0.737518                     -57.461623245624
                          3        0.123244E-01                 -57.676656834797
                          4        0.338536E-02                 -57.676690535970
                          5        0.252157E-03                 -57.676697146183
                          6        0.162704E-05                 -57.676697160103
                          7        0.846593E-06                 -57.676697160104

 Energy components [Hartree]           Total Energy ::          -57.676697160104
                                        Band Energy ::          -13.440549799540
                                     Kinetic Energy ::           25.008468428381
                                   Potential Energy ::          -82.685165588485
                                      Virial (-V/T) ::            3.306286661467
                                        Core Energy ::          -97.155838374470
                                          XC Energy ::           -6.919409696495
                                     Coulomb Energy ::           46.398550910862
                       Total Pseudopotential Energy ::         -122.259340742080
                       Local Pseudopotential Energy ::         -118.928992669456
                    Nonlocal Pseudopotential Energy ::           -3.330348072625
                                        Confinement ::            0.950339392289

 Orbital energies  State     L     Occupation   Energy[a.u.]          Energy[eV]

                       1     0          2.000      -2.312566          -62.928123
                       2     0          2.000      -0.123060           -3.348633

                       1     1          6.000      -1.385567          -37.703193

                       1     2          2.000      -0.127948           -3.481643


 Total Electron Density at R=0:                                         0.004726

 Guess for atomic kind: O

 Electronic structure
    Total number of core electrons                                          2.00
    Total number of valence electrons                                       6.00
    Total number of electrons                                               8.00
    Multiplicity                                                   not specified
    S   [  2.00] 2.00
    P      4.00


 *******************************************************************************
                  Iteration          Convergence                     Energy [au]
 *******************************************************************************
                          1        0.702811                     -15.577904332270
                          2        0.612408                     -15.588447180504
                          3        0.955344E-02                 -15.655871208406
                          4        0.223754E-02                 -15.655885053552
                          5        0.157183E-02                 -15.655885461027
                          6        0.124953E-02                 -15.655885607150
                          7        0.312011E-06                 -15.655885858066

 Energy components [Hartree]           Total Energy ::          -15.655885858066
                                        Band Energy ::           -2.983128125584
                                     Kinetic Energy ::           11.754765134683
                                   Potential Energy ::          -27.410650992749
                                      Virial (-V/T) ::            2.331875684345
                                        Core Energy ::          -26.153522949072
                                          XC Energy ::           -3.157392363346
                                     Coulomb Energy ::           13.655029454351
                       Total Pseudopotential Energy ::          -37.943026860963
                       Local Pseudopotential Energy ::          -39.220419683052
                    Nonlocal Pseudopotential Energy ::            1.277392822089
                                        Confinement ::            0.347387772086

 Orbital energies  State     L     Occupation   Energy[a.u.]          Energy[eV]

                       1     0          2.000      -0.861522          -23.443215

                       1     1          4.000      -0.315021           -8.572154


 Total Electron Density at R=0:                                         0.000093

 Spin 1
 Re-scaling the density matrix to get the right number of electrons for spin 1
                  # Electrons              Trace(P)               Scaling factor
                          768               768.001                        1.000

 Spin 2
 Re-scaling the density matrix to get the right number of electrons for spin 2
                  # Electrons              Trace(P)               Scaling factor
                          767               768.001                        0.999


 SCF WAVEFUNCTION OPTIMIZATION

  ----------------------------------- OT ---------------------------------------
  Minimizer      : DIIS                : direct inversion
                                         in the iterative subspace
                                         using   7 DIIS vectors
                                         safer DIIS on
  Preconditioner : FULL_SINGLE_INVERSE : inversion of 
                                         H + eS - 2*(Sc)(c^T*H*c+const)(Sc)^T
  Precond_solver : DEFAULT
  stepsize       :    0.08000000                  energy_gap     :    0.08000000
  eps_taylor     :   0.10000E-15                  max_taylor     :             4
  ----------------------------------- OT ---------------------------------------

  Step     Update method      Time    Convergence         Total energy    Change
  ------------------------------------------------------------------------------
     1 OT DIIS     0.80E-01    2.4     0.00997716     -5649.6946795156 -5.65E+03
     2 OT DIIS     0.80E-01    1.6     0.00722587     -5684.2007138227 -3.45E+01
     3 OT DIIS     0.80E-01    1.5     0.00461743     -5716.5459441691 -3.23E+01
     4 OT DIIS     0.80E-01    1.5     0.00365874     -5726.9012033676 -1.04E+01
     5 OT DIIS     0.80E-01    1.6     0.00266835     -5738.1393652131 -1.12E+01
     6 OT DIIS     0.80E-01    1.5     0.00219524     -5744.9785656800 -6.84E+00
     7 OT DIIS     0.80E-01    1.5     0.00185089     -5750.9071372615 -5.93E+00
     8 OT DIIS     0.80E-01    1.5     0.00148136     -5756.7328633084 -5.83E+00
     9 OT DIIS     0.80E-01    1.5     0.00127246     -5760.3618679020 -3.63E+00
    10 OT DIIS     0.80E-01    1.5     0.00099387     -5763.5725600598 -3.21E+00
    11 OT DIIS     0.80E-01    1.5     0.00090684     -5764.3809209685 -8.08E-01
    12 OT DIIS     0.80E-01    1.5     0.00073787     -5766.1238696536 -1.74E+00
    13 OT DIIS     0.80E-01    1.5     0.00059973     -5767.4995851234 -1.38E+00
    14 OT DIIS     0.80E-01    1.5     0.00049651     -5768.4097790706 -9.10E-01
    15 OT DIIS     0.80E-01    1.5     0.00044295     -5768.8881922958 -4.78E-01
    16 OT DIIS     0.80E-01    1.5     0.00037648     -5769.3790003118 -4.91E-01
    17 OT DIIS     0.80E-01    1.6     0.00034116     -5769.6477976036 -2.69E-01
    18 OT DIIS     0.80E-01    1.5     0.00029768     -5769.9529522673 -3.05E-01
    19 OT DIIS     0.80E-01    1.4     0.00026474     -5770.1405442130 -1.88E-01
    20 OT DIIS     0.80E-01    1.5     0.00025174     -5770.2372593647 -9.67E-02
    21 OT DIIS     0.80E-01    1.5     0.00022560     -5770.4360404994 -1.99E-01
    22 OT DIIS     0.80E-01    1.5     0.00020266     -5770.5786202242 -1.43E-01
    23 OT DIIS     0.80E-01    1.5     0.00018866     -5770.6872138915 -1.09E-01
    24 OT DIIS     0.80E-01    1.5     0.00016976     -5770.7671194052 -7.99E-02
    25 OT DIIS     0.80E-01    1.5     0.00016167     -5770.8288324017 -6.17E-02
    26 OT DIIS     0.80E-01    1.5     0.00014739     -5770.8910522863 -6.22E-02
    27 OT DIIS     0.80E-01    1.5     0.00014294     -5770.9465580087 -5.55E-02
    28 OT DIIS     0.80E-01    1.5     0.00013988     -5770.9583170762 -1.18E-02
    29 OT SD       0.80E-01    1.6     0.00014425     -5770.9959957120 -3.77E-02
    30 OT DIIS     0.80E-01    1.5     0.00013778     -5771.0042800130 -8.28E-03
    31 OT DIIS     0.80E-01    1.5     0.00012406     -5771.0458730955 -4.16E-02
    32 OT DIIS     0.80E-01    1.5     0.00011803     -5771.0836032900 -3.77E-02
    33 OT DIIS     0.80E-01    1.5     0.00010671     -5771.1436472285 -6.00E-02
    34 OT SD       0.80E-01    1.5     0.00010634     -5771.1578042592 -1.42E-02
    35 OT DIIS     0.80E-01    1.5     0.00010308     -5771.1623417338 -4.54E-03
    36 OT DIIS     0.80E-01    1.5     0.00010208     -5771.1847840131 -2.24E-02
    37 OT DIIS     0.80E-01    1.5     0.00009406     -5771.2074586140 -2.27E-02
    38 OT DIIS     0.80E-01    1.5     0.00009111     -5771.2295050326 -2.20E-02
    39 OT DIIS     0.80E-01    1.5     0.00008737     -5771.2465757521 -1.71E-02
    40 OT DIIS     0.80E-01    1.5     0.00007977     -5771.2819331826 -3.54E-02

  Leaving inner SCF loop after reaching    40 steps.


  Electronic density on regular grids:      -1534.9999999999        0.0000000001
  Core density on regular grids:             1535.9999999995       -0.0000000005
  Total charge density on r-space grids:        0.9999999996
  Total charge density g-space grids:           0.9999999996

  Overlap energy of the core charge distribution:               0.00000000000313
  Self energy of the core charge distribution:             -12156.89556134359555
  Core Hamiltonian energy:                                   3298.51499150468271
  Hartree energy:                                            3999.19750741763664
  Exchange-correlation energy:                               -928.60843695911353

  DFT+U energy:                                                16.50956619777753

  Total energy:                                             -5771.28193318260855

  outer SCF iter =    1 RMS gradient =   0.80E-04 energy =      -5771.2819331826

  ----------------------------------- OT ---------------------------------------
[...]
      -1.00857856     -1.00850890     -1.00844947     -1.00843699
      -1.00838586     -1.00833240     -1.00829940     -1.00826802
      -1.00821833     -1.00818341     -1.00812206     -1.00800718
      -1.00798216     -1.00793795     -1.00789363     -1.00788371
      -1.00777634     -1.00770847     -1.00763914     -1.00762468
      -1.00757226     -1.00745216     -1.00740970     -1.00730990
      -1.00726306     -1.00724338     -1.00712329     -1.00700945
      -1.00698964     -1.00683771     -1.00674067     -1.00667831
      -1.00662595     -1.00657517     -1.00630031     -1.00615577
      -1.00602859     -1.00564644     -1.00555578     -1.00519273
      -0.41049469     -0.40166600     -0.40125916     -0.40090587
      -0.40074856     -0.39151423     -0.39132572     -0.39023917
      -0.38999857     -0.38990875     -0.38925775     -0.38917645
      -0.38888558     -0.38846693     -0.38836948     -0.38690126
      -0.38684887     -0.38677911     -0.38666050     -0.37970089
      -0.37753412     -0.37665253     -0.37648636     -0.37638182
      -0.37635432     -0.37600842     -0.37576952     -0.37528811
      -0.37516568     -0.37439900     -0.37368610     -0.37350892
      -0.37342894     -0.37336787     -0.37332503     -0.37318826
      -0.37304506     -0.37298628     -0.37249452     -0.36880729
      -0.36606808     -0.36424970     -0.36414783     -0.36376836
      -0.36337626     -0.36250827     -0.36122816     -0.36113143
      -0.36065409     -0.36054044     -0.35969738     -0.35951375
      -0.35946141     -0.35943051     -0.35910840     -0.35896439
      -0.35879132     -0.35854933     -0.35853172     -0.35844875
      -0.35834043     -0.35830336     -0.35822457     -0.35803416
      -0.35766061     -0.35762385     -0.35752368     -0.35660644
      -0.35652614     -0.35621200     -0.35611145     -0.35569319
      -0.35554106     -0.35511117     -0.35501230     -0.35492320
      -0.35484726     -0.35469062     -0.35443857     -0.35354553
      -0.35304519     -0.35278710     -0.35269288     -0.35229173
      -0.35190353     -0.35177986     -0.35174805     -0.35161651
      -0.35141511     -0.35136254     -0.35134426     -0.35129769
      -0.35094984     -0.35061994     -0.35052954     -0.35006475
      -0.34997560     -0.34892269     -0.34886370     -0.34876505
      -0.34846287     -0.34836968     -0.34834268     -0.34820678
      -0.34803112     -0.34798067     -0.34786451     -0.34754579
      -0.34749250     -0.34702024     -0.34684893     -0.34680670
      -0.34673541     -0.34657418     -0.34655905     -0.34639224
      -0.34621495     -0.34553327     -0.34495137     -0.34452483
      -0.34409918     -0.34400254     -0.34391746     -0.34358438
      -0.34347464     -0.34336971     -0.34253888     -0.32825531
       0.02285732      0.02418349      0.02451294      0.02530844
       0.02557934      0.02563486      0.02579188      0.02582041
       0.02666274      0.02690616      0.02693463      0.02702299
       0.02719416      0.02730111      0.02738474      0.02762885
       0.02780032      0.02814090      0.02825977      0.02847511
       0.02870641      0.02890085      0.02896254      0.02904563
       0.02917392      0.02930389      0.02950980      0.02973321
       0.02993540      0.02996624      0.03023198      0.03040245
       0.03070313      0.03088104      0.03091305      0.03102517
       0.03106049      0.03114673      0.03125038      0.03153342
       0.03163820      0.03183163      0.03202884      0.03217110
       0.03434945      0.03445128      0.03451421      0.03472820
       0.03692837      0.03815371      0.03836081      0.03845372
       0.03848825      0.03864277      0.03922171      0.03985145
       0.03988815      0.03998955      0.04026699      0.04028322
       0.04065975      0.04073264      0.04123003      0.04152636
       0.04160857      0.04167615      0.04180598      0.04186836
       0.04189679      0.04192780      0.04206911      0.04216597
       0.04257490      0.04841121      0.04852583      0.04911286
       0.04945606      0.04969264      0.04979354      0.04984723
       0.05001025      0.05017111      0.05045073      0.05057980
       0.05112762      0.05131044      0.05152233      0.05172775
       0.05239375      0.05264763      0.05290567      0.05313121
       0.05318654      0.05394873      0.05458780      0.05466678
       0.05471974      0.05488508      0.05499983      0.05508222
       0.05518687      0.05527011      0.05534220      0.05546319
       0.05587754      0.05601758      0.05604609      0.05606574
       0.05618758      0.05634425      0.05709364      0.06019245
       0.06040327      0.06081102      0.06132394      0.06161184
       0.06208787      0.06213174      0.06218686      0.06227729
       0.06233926      0.06246160      0.06259324      0.06271833
       0.06355701      0.06374061      0.06375467      0.06402148
       0.06803420      0.06954075      0.06975576      0.07032536
       0.07064427      0.07183919      0.07292835      0.07361741
       0.07421648      0.07447593      0.07464333      0.07473297
       0.07477351      0.07490187      0.07520228      0.07538407
       0.07542411      0.07550539      0.07575072      0.07579190
       0.07609433      0.07631095      0.07714788      0.07775706
       0.07914689      0.08154342      0.08227361      0.08254717
       0.08275019      0.08284700      0.08288996      0.08302299
       0.08319093      0.08342979      0.08360313      0.08631727
       0.08793177      0.08814816      0.08847864      0.08862180
       0.08948549      0.08955324      0.09029588      0.09037904
       0.09177466      0.09209625      0.09258621      0.09304267
       0.09421018      0.09468144      0.09491697      0.09501624
       0.09511204      0.09569598      0.09582483      0.09585807
       0.09636716      0.09705664      0.09732759      0.09759790
       0.09844671      0.09882324      0.09942390      0.09947265
       0.09958877      0.09985362      0.10041544      0.10063498
       0.10075057      0.10133331      0.10146832      0.10169909
       0.10197297      0.10210190      0.10216804      0.10263088
       0.10295024      0.10313737      0.10375265      0.10386118
       0.10448073      0.10463751      0.10514793      0.10517571
       0.10569870      0.10585218      0.10680334      0.10704697
       0.10709524      0.10767786      0.10816980      0.10851216
       0.10889409      0.10896158      0.10903272      0.10938030
       0.10941960      0.10951626      0.10956203      0.10972366
       0.10973630      0.10984176      0.10993002      0.11035655
       0.11053183      0.11130482      0.11164181      0.11172765
       0.11177984      0.11192058      0.11206123      0.11216908
       0.11226183      0.11258784      0.11270116      0.11280925
       0.11306566      0.11314763      0.11324550      0.11381828
       0.11400155      0.11453465      0.11529191      0.11603429
       0.11786374      0.11916131      0.11934006      0.11946377
       0.11949885      0.12056789      0.12059938      0.12069285
       0.12180648      0.12776607      0.12814434      0.12915011
       0.12980006      0.12990695      0.13073349      0.13125619
       0.13131478      0.13266830      0.13300907      0.13394091
       0.13447933      0.13451936      0.13455537      0.13499714
       0.13603301      0.13614105      0.13622513      0.13710152
       0.13719531      0.13749270      0.13778770      0.13827990
       0.13857429      0.13886962      0.13936182      0.13962677
       0.13999979      0.14068513      0.14083671      0.14095592
       0.14146345      0.14185112      0.14198069      0.14208425
       0.14343712      0.14382148      0.14393677      0.14458900
       0.14470996      0.14483457      0.14493995      0.14507712
       0.14525507      0.14534650      0.14602305      0.14727652
       0.14751030      0.14789121      0.14845470      0.14904273
       0.14921963      0.14992026      0.15017976      0.15024848
       0.15226865      0.15245741      0.15297665      0.15333817
       0.15423147      0.15519760      0.15695315      0.15707911
       0.15709940      0.15764111      0.15793339      0.15814513
       0.15830405      0.15841151      0.15850608      0.15854670
       0.15918955      0.15936768      0.15940316      0.15947297
       0.15955819      0.15973914      0.16001212      0.16030546
       0.16042273      0.16064959      0.16074183      0.16097319
       0.16102852      0.16108319      0.16115428      0.16155161
       0.16172444      0.16179648      0.16245689      0.16261520
       0.16270767      0.16275847      0.16315878      0.16330955
       0.16351834      0.16461584      0.16468640      0.16496745
       0.16531349      0.16551300      0.16645031      0.16647687
       0.16670012      0.16758110      0.16771710      0.16809067
       0.16833687      0.16850219      0.16919213      0.16933422
       0.16940692      0.16999935      0.17276739      0.17281292
       0.17370154      0.17493998      0.17538600      0.17724104
       0.17981796      0.18828222      0.19327276
 Fermi Energy [eV] :    5.259219
  
  Lowest Eigenvalues of the unoccupied subspace spin            1
 -----------------------------------------------------
 OT| Eigensolver reached convergence in 67 iterations
       0.26556373
  
  Lowest Eigenvalues of the unoccupied subspace spin            2
 -----------------------------------------------------
 OT| Eigensolver reached convergence in 69 iterations
       0.26524589
  
 HOMO - LUMO gap [eV] :    2.395405
 HOMO - LUMO gap [eV] :    1.958489

 ENERGY| Total FORCE_EVAL ( QS ) energy [a.u.]:            -5771.625723385518540

 OPT| **************************************************************************
 OPT| Step number                                                             21
 OPT| Optimization method                                                   BFGS
 OPT| Total energy [hartree]                                    -5771.6257233855
 OPT| Effective energy change [hartree]                            -0.0785287784
 OPT| Predicted energy change [hartree]                            -0.0755072237
 OPT| Scaling factor                                                0.5233081396
 OPT| Step size                                                     0.4185282590
 OPT| Trust radius                                                  0.4724315332
 OPT| Decrease in energy                                                     YES
 OPT| Used time [s]                                                       92.801
 OPT|
 OPT| Maximum step size                                             0.4185282590
 OPT| Convergence limit for maximum step size                       0.0030000000
 OPT| Maximum step size is converged                                          NO
 OPT|
 OPT| RMS step size                                                 0.1159719633
 OPT| Convergence limit for RMS step size                           0.0015000000
 OPT| RMS step size is converged                                              NO
 OPT|
 OPT| Maximum gradient                                              0.0041932573
 OPT| Convergence limit for maximum gradient                        0.0004500000
 OPT| Maximum gradient is converged                                           NO
 OPT|
 OPT| RMS gradient                                                  0.0008671429
 OPT| Convergence limit for RMS gradient                            0.0003000000
 OPT| RMS gradient is converged                                               NO
 OPT| **************************************************************************
 OPT| Estimated peak process memory after this step [MiB]                    362

 --------------------------
 OPTIMIZATION STEP:     22
 --------------------------

 Spin 1

 Number of electrons:                                                        768
 Number of occupied orbitals:                                                768
 Number of molecular orbitals:                                               768

 Spin 2

 Number of electrons:                                                        767
 Number of occupied orbitals:                                                767
 Number of molecular orbitals:                                               767

 Number of orbital functions:                                               3328
 Number of independent orbital functions:                                   3328

 Parameters for the always stable predictor-corrector (ASPC) method:

  ASPC order: 3

  B(1) =   3.000000
  B(2) =  -3.428571
  B(3) =   1.928571
  B(4) =  -0.571429
  B(5) =   0.071429

 Parameters for the always stable predictor-corrector (ASPC) method:

  ASPC order: 3

  B(1) =   3.000000
  B(2) =  -3.428571
  B(3) =   1.928571
  B(4) =  -0.571429
  B(5) =   0.071429

 Extrapolation method: ASPC


 SCF WAVEFUNCTION OPTIMIZATION

  ----------------------------------- OT ---------------------------------------
  Minimizer      : DIIS                : direct inversion
                                         in the iterative subspace
                                         using   7 DIIS vectors
                                         safer DIIS on
  Preconditioner : FULL_SINGLE_INVERSE : inversion of 
                                         H + eS - 2*(Sc)(c^T*H*c+const)(Sc)^T
  Precond_solver : DEFAULT
  stepsize       :    0.08000000                  energy_gap     :    0.08000000
  eps_taylor     :   0.10000E-15                  max_taylor     :             4
  ----------------------------------- OT ---------------------------------------

  Step     Update method      Time    Convergence         Total energy    Change
  ------------------------------------------------------------------------------
     1 OT DIIS     0.80E-01    1.6     0.00136857     -5769.9901074833 -5.77E+03
     2 OT DIIS     0.80E-01    1.4     0.00083817     -5770.5775845754 -5.87E-01
     3 OT DIIS     0.80E-01    1.5     0.00060149     -5770.9516207605 -3.74E-01
     4 OT DIIS     0.80E-01    1.5     0.00040288     -5771.2848998643 -3.33E-01
     5 OT DIIS     0.80E-01    1.5     0.00022935     -5771.5065069076 -2.22E-01
     6 OT DIIS     0.80E-01    1.5     0.00014990     -5771.5653138449 -5.88E-02
     7 OT DIIS     0.80E-01    1.5     0.00010569     -5771.5931387982 -2.78E-02
     8 OT DIIS     0.80E-01    1.5     0.00007193     -5771.6082427706 -1.51E-02
     9 OT DIIS     0.80E-01    1.5     0.00005390     -5771.6147907996 -6.55E-03
    10 OT DIIS     0.80E-01    1.5     0.00003697     -5771.6194318159 -4.64E-03
    11 OT DIIS     0.80E-01    1.5     0.00002959     -5771.6210875034 -1.66E-03
    12 OT DIIS     0.80E-01    1.5     0.00002243     -5771.6224995602 -1.41E-03
    13 OT DIIS     0.80E-01    1.5     0.00001755     -5771.6233109998 -8.11E-04
    14 OT DIIS     0.80E-01    1.5     0.00001367     -5771.6238813409 -5.70E-04
    15 OT DIIS     0.80E-01    1.5     0.00001139     -5771.6241838508 -3.03E-04
    16 OT DIIS     0.80E-01    1.5     0.00000953     -5771.6244263406 -2.42E-04
    17 OT DIIS     0.80E-01    1.5     0.00000819     -5771.6245981935 -1.72E-04
    18 OT DIIS     0.80E-01    1.5     0.00000731     -5771.6247207038 -1.23E-04
    19 OT DIIS     0.80E-01    1.5     0.00000662     -5771.6248231415 -1.02E-04
    20 OT DIIS     0.80E-01    1.5     0.00000597     -5771.6249221984 -9.91E-05
    21 OT DIIS     0.80E-01    1.5     0.00000540     -5771.6250198660 -9.77E-05
    22 OT DIIS     0.80E-01    1.5     0.00000499     -5771.6250928945 -7.30E-05
    23 OT DIIS     0.80E-01    1.5     0.00000452     -5771.6251759638 -8.31E-05
    24 OT DIIS     0.80E-01    1.5     0.00000408     -5771.6252520572 -7.61E-05
    25 OT DIIS     0.80E-01    1.5     0.00000364     -5771.6253238412 -7.18E-05
    26 OT DIIS     0.80E-01    1.5     0.00000327     -5771.6253782987 -5.45E-05
    27 OT DIIS     0.80E-01    1.5     0.00000288     -5771.6254275600 -4.93E-05
    28 OT DIIS     0.80E-01    1.5     0.00000257     -5771.6254633740 -3.58E-05
    29 OT DIIS     0.80E-01    1.5     0.00000229     -5771.6254926943 -2.93E-05
    30 OT DIIS     0.80E-01    1.5     0.00000207     -5771.6255115063 -1.88E-05
    31 OT DIIS     0.80E-01    1.5     0.00000183     -5771.6255293784 -1.79E-05
    32 OT DIIS     0.80E-01    1.5     0.00000166     -5771.6255412643 -1.19E-05
    33 OT DIIS     0.80E-01    1.6     0.00000152     -5771.6255505332 -9.27E-06
    34 OT DIIS     0.80E-01    1.5     0.00000141     -5771.6255567769 -6.24E-06
    35 OT DIIS     0.80E-01    1.5     0.00000132     -5771.6255622453 -5.47E-06
    36 OT DIIS     0.80E-01    1.5     0.00000125     -5771.6255666857 -4.44E-06
    37 OT DIIS     0.80E-01    1.5     0.00000119     -5771.6255708603 -4.17E-06
    38 OT DIIS     0.80E-01    1.5     0.00000114     -5771.6255740355 -3.18E-06
    39 OT DIIS     0.80E-01    1.5     0.00000108     -5771.6255776305 -3.59E-06
    40 OT DIIS     0.80E-01    1.5     0.00000104     -5771.6255807201 -3.09E-06

  Leaving inner SCF loop after reaching    40 steps.


  Electronic density on regular grids:      -1534.9999999999        0.0000000001
  Core density on regular grids:             1535.9999999995       -0.0000000005
  Total charge density on r-space grids:        0.9999999996
  Total charge density g-space grids:           0.9999999996

  Overlap energy of the core charge distribution:               0.00000000000381
  Self energy of the core charge distribution:             -12156.89556134359555
  Core Hamiltonian energy:                                   3298.81030355313032
  Hartree energy:                                            3998.93627179253644
  Exchange-correlation energy:                               -928.80247521620618

  DFT+U energy:                                                16.32588049406008

  Total energy:                                             -5771.62558072007323

  outer SCF iter =    1 RMS gradient =   0.10E-05 energy =      -5771.6255807201

  ----------------------------------- OT ---------------------------------------
  Minimizer      : DIIS                : direct inversion
                                         in the iterative subspace
                                         using   7 DIIS vectors
                                         safer DIIS on
  Preconditioner : FULL_SINGLE_INVERSE : inversion of 
                                         H + eS - 2*(Sc)(c^T*H*c+const)(Sc)^T
  Precond_solver : DEFAULT
  stepsize       :    0.08000000                  energy_gap     :    0.08000000
  eps_taylor     :   0.10000E-15                  max_taylor     :             4
  ----------------------------------- OT ---------------------------------------

  Step     Update method      Time    Convergence         Total energy    Change
  ------------------------------------------------------------------------------
     1 OT DIIS     0.80E-01    3.6     0.00000101     -5771.6255838079 -3.09E-06
     2 OT DIIS     0.80E-01    1.3     0.00000100     -5771.6255842248 -4.17E-07

  *** SCF run converged in     2 steps ***


  Electronic density on regular grids:      -1534.9999999999        0.0000000001
  Core density on regular grids:             1535.9999999995       -0.0000000005
  Total charge density on r-space grids:        0.9999999996
  Total charge density g-space grids:           0.9999999996

  Overlap energy of the core charge distribution:               0.00000000000381
  Self energy of the core charge distribution:             -12156.89556134359555
  Core Hamiltonian energy:                                   3298.80926354254643
  Hartree energy:                                            3998.93694314118920
  Exchange-correlation energy:                               -928.80235411348315

  DFT+U energy:                                                16.32612454851803

  Total energy:                                             -5771.62558422482107
