     192
 i =        7, E =     -5771.6111345602
Ti        -0.0010657181        0.0026783707       -0.0005425093
Ti         1.8864870157        1.8898110112        4.8068081095
Ti        -0.0004055895        1.8892797057        2.4020395338
Ti         1.8862708057        0.0038815464        7.2141544426
Ti         0.0000509356        3.7752789526        0.0021478949
Ti         1.8835923833       13.2425871655        4.8104812770
Ti        11.3514728441        1.8877489852        2.4038827746
Ti         5.6692549931        0.0054609264        7.2201095822
Ti         1.8867889179        3.7750824053        7.2117464787
Ti        -0.0089898904       13.2402645919        2.4014341799
Ti         5.6685197386        1.8887364447        4.8009508335
Ti        11.3511779154        0.0019776519       -0.0020908564
Ti         3.7754307340        0.0002569011       -0.0076214360
Ti        13.2375909385        1.8883212070        4.8097220357
Ti        13.2371735277        0.0017127046        7.2109720619
Ti         3.7751059259        1.8991471587        2.4089461910
Ti         1.8851371866        5.6638443710        4.8119344961
Ti        -0.0064905580       11.3516165293        0.0027702939
Ti        -0.0006107341        5.6659845300        2.3966055644
Ti         1.8796005452       11.3523715689        7.2102661075
Ti        -0.0023837897        7.5682559037        0.0073514382
Ti         1.8755504925        9.4599311984        4.8177671828
Ti         7.5716534660        1.8815245160        2.4121563560
Ti         9.4640410487        0.0022233674        7.2143813751
Ti         1.8829720095        7.5666265597        7.2070548229
Ti        -0.0189557995        9.4610157846        2.3935476709
Ti         9.4642067275        1.8874403647        4.8064269198
Ti         7.5723799101        0.0032346244       -0.0089581129
Ti         3.7745078174        3.7737126578       -0.0028571408
Ti        13.2377707471       13.2391153641        4.8092191631
Ti        11.3563586019        5.6656234344        2.3980026894
Ti         5.6717750579       11.3608795631        7.2189784623
Ti        13.2379950601        3.7754898633        7.2086492994
Ti         3.7782345198       13.2816363678        2.4163712619
Ti         5.6668706375        5.6540404247        4.8086003207
Ti        11.3538697676       11.3523975589        0.0013938430
Ti        11.3511152033       13.2401792326        2.4043103857
Ti         5.6676435860        3.7719884964        7.2177033293
Ti         3.7726338567       11.3541865530       -0.0278503127
Ti        13.2378576021        5.6668924040        4.8150762800
Ti         5.6698545230       13.2522284491        4.8035031969
Ti        11.3520008091        3.7746978026        0.0001743042
Ti        13.2364171480       11.3512130048        7.2072107366
Ti         3.7706705459        5.6520711110        2.4029629356
Ti         3.7681489947        7.5666563711       -0.0020588815
Ti        13.2380044952        9.4623953741        4.8156946059
Ti         7.5708074696        5.6316062473        2.4121128956
Ti         9.4683761895       11.3539858488        7.2115197237
Ti        13.2387079884        7.5694556790        7.2031758880
Ti         3.7201565003        9.4362807433        2.3868723559
Ti         9.4668768163        5.6632332281        4.8140136934
Ti         7.5796021134       11.3552016237       -0.0115135044
Ti        11.3702241324        9.4632079428        2.3950426618
Ti         5.6655050379        7.5595904053        7.2152170450
Ti         5.6667422364        9.4621347912        4.8568291793
Ti        11.3565659236        7.5688352212        0.0051757721
Ti         9.4642711998        3.7737347924        7.2120226108
Ti         7.5774285738       13.2552394658        2.4125500372
Ti         7.5713215594        3.7758396442       -0.0081066160
Ti         9.4656858599       13.2424668484        4.8057523272
Ti         7.5738329285        7.5659198410       -0.0217448878
Ti         9.4759121849        9.4637802220        4.8179981727
Ti         7.6282613070        9.4802227903        2.3880455880
Ti         9.4700121665        7.5678885858        7.2068707681
O         0.0057134933        0.0011013481        1.9825749951
O         1.8867595473        1.8875269375        6.7885255867
O         0.0019185518        1.8841340275        4.3856854893
O         1.8880744721       -0.0038416700        9.1949045505
O         1.8879279780        0.0024689207        5.2291994891
O         0.0022126868        1.8869908376        0.4223839704
O         1.8876795599        1.8828553811        2.8246742857
O         0.0019563205       -0.0013015524        7.6330177956
O         0.0022524900        3.7761844440        1.9775089269
O         1.8886324213       13.2362872617        6.7914102460
O        11.3510767843        1.8850181713        4.3856344968
O         5.6722878849       -0.0045065988        9.1977566967
O         1.8873619350        3.7759337812        5.2343320337
O         0.0057864570       13.2361737797        0.4215583947
O         5.6722805039        1.8840291428        2.8219288461
O        11.3508349570       -0.0007764783        7.6331828390
O         3.7763991245       -0.0033269844        7.6349238278
O        13.2369188888        1.8845436619        2.8253887088
O        13.2367005572       -0.0009227679        9.1932326841
O         3.7761280804        1.8836280781        4.3840976898
O         1.8876747358        5.6728806763        6.7905417102
O         0.0101993831       11.3512849697        1.9838433900
O         0.0025739554        5.6728614234        0.4195606372
O         1.8987661832       11.3499217003        5.2245702129
O         0.0052091069        7.5666012790        1.9854632026
O         1.8927344656        9.4627573539        6.7894955154
O         7.5661707221        1.8850374535        4.3900576404
O         9.4621814966       -0.0014594138        9.1897893521
O         1.8963209823        7.5667078388        5.2248286788
O         0.0057020919        9.4632144059        0.4219212631
O         9.4623429270        1.8856278878        2.8288687360
O         7.5660433822       -0.0020991157        7.6302156128
O         3.7704125300        0.0196025062        1.9768012668
O        13.2378509464        1.8871414153        6.7894115052
O         0.0017478072        5.6581662437        4.3855320530
O         1.8854142518       11.3516759691        9.1968839253
O        13.2383902747        0.0010372319        5.2287373091
O         3.7706421908        1.8843101806        0.4234483536
O         1.8870018957        5.6605146578        2.8253621154
O        -0.0000993944       11.3521852355        7.6349549811
O        11.3523861635        1.8872025017        0.4221689668
O         5.6541537572        0.0052629837        5.2307870096
O         5.6552513984        1.8870861700        6.7873717114
O        11.3522408013        0.0013152251        1.9820508997
O         1.8878358500        3.7710070402        9.1949591103
O         0.0038560666       13.2349756069        4.3818735950
O         0.0021362260        3.7705190006        7.6320159041
O         1.8905373531       13.2166493246        2.8200119620
O         3.7720036804        3.7754209565        1.9737281596
O        13.2384203385       13.2360702000        6.7902035004
O        11.3502417980        5.6582569123        4.3839074334
O         5.6745439819       11.3471923456        9.2039584075
O        13.2374453210        3.7762724909        5.2332405744
O         3.7696293234       13.2262075725        0.4367096871
O         5.6723434209        5.6754929629        2.8205702517
O        11.3515313403       11.3516823557        7.6347716056
O        11.3517908812       13.2364418421        0.4213041679
O         5.6558968117        3.7722472027        5.2354534364
O         3.7755263962       11.3497280733        7.6205140057
O        13.2381947642        5.6576740533        2.8262088902
O         5.6540631644       13.2389882920        6.7885372174
O        11.3504958906        3.7760141996        1.9780287727
O        13.2355590038       11.3522400082        9.1911246892
O         3.7769926097        5.6631166923        4.3830575767
O         5.6559973888        5.6702708737        6.7900281460
O        11.3489577153       11.3513321100        1.9836170828
O        13.2371059610        3.7705945330        9.1942904325
O         3.7756854496       13.2249564277        4.3831761928
O        11.3500177467        5.6729855042        0.4197465432
O         5.6538134929       11.3552116678        5.2211306359
O         3.7761848694        3.7716568125        7.6355447959
O        13.2340661706       13.2352599847        2.8273989322
O        13.2383791068       11.3509231853        5.2274232516
O         3.7726747711        5.6747600912        0.4219015290
O         5.6729690705       13.2127082887        2.8203145614
O        11.3510156900        3.7709960710        7.6321778888
O         3.7948728286       11.3505870177        2.0043423469
O        13.2374015365        5.6732223640        6.7920430582
O        11.3513410720       13.2347505704        4.3845967648
O         5.6723121466        3.7733493569        9.1983593308
O         3.7956030630        7.5531057543        1.9848290513
O        13.2378420785        9.4628790683        6.7873026692
O         7.5661733013        5.6670468124        4.3904807081
O         9.4651287785       11.3493387883        9.1894819727
O        13.2374197060        7.5670903285        5.2253869537
O         3.7812372803        9.4707573813        0.4242967793
O         9.4605403872        5.6723039650        2.8260968153
O         7.5676678782       11.3485628527        7.6275911173
O        11.3490684226        9.4627198288        0.4215013940
O         5.6565405325        7.5631532276        5.2197830873
O         5.6550800818        9.4630494157        6.8163563980
O        11.3461668684        7.5666942364        1.9858445546
O         9.4619974091        3.7729101332        9.1914648396
O         7.5646715642       13.2293396117        4.3879838138
O         7.5659084148        3.7726506018        7.6281251698
O         9.4628599977       13.2315177178        2.8303614318
O         7.5800185372        0.0036519332        1.9781929528
O         9.4672941981        1.8868594942        6.7894403267
O         0.0011542096        9.4702093247        4.3806187719
O         1.8856105378        7.5882255497        9.1941269320
O         9.4665419647        0.0016571361        5.2288799798
O         7.5816946502        1.8886885352        0.4236426822
O         1.8630437633        9.4770381386        2.8346368474
O         0.0016418932        7.5855322369        7.6339701372
O         7.5816188777        3.7617718915        1.9726486894
O         9.4660833673       13.2363637133        6.7896407353
O        11.3524257327        9.4689389518        4.3803537841
O         5.6696792841        7.5912436729        9.2031085723
O         9.4663586458        3.7750837798        5.2328278044
O         7.5791838634       13.2344269696        0.4248211117
O         5.6714814362        9.4738547717        2.8024067219
O        11.3527847346        7.5850763664        7.6342716696
O         3.7748535089        7.5888648352        7.6340714449
O        13.2369184097        9.4696270230        2.8336628650
O        13.2380797485        7.5850917902        9.1919123078
O         3.7885453550        9.4753184053        4.3629132515
O         9.4658304178        5.6729573159        6.7928273592
O         7.5538440196       11.3618036017        1.9846738824
O         7.5822392337        5.6805739377        0.4319754153
O         9.4563671666       11.3510454826        5.2254097909
O         7.5565143932        7.5675564341        2.0010182761
O         9.4611236235        9.4631142045        6.7906906123
O         7.5521331067        9.4650775627        4.3681963072
O         9.4644322938        7.5862094893        9.1922146590
O         9.4558896184        7.5676348778        5.2222369948
O         7.5712250317        9.4583789854        0.4219886393
O         9.4872609546        9.4652165423        2.8397515899
O         7.5664281178        7.5881250097        7.6171953411
     192
 i =        8, E =     -5771.6180287466
Ti        -0.0000841866        0.0032501583       -0.0003939161
Ti         1.8855402345        1.8879249527        4.8086839804
Ti         0.0001117021        1.8883669741        2.4015909159
Ti         1.8850248606        0.0044104029        7.2131603239
Ti        -0.0002572608        3.7751237347        0.0020094024
Ti         1.8823699725       13.2383357731        4.8098140273
Ti        11.3515435373        1.8879620161        2.4036406842
Ti         5.6691554342        0.0081421693        7.2199054458
Ti         1.8856297413        3.7750485330        7.2113834179
Ti        -0.0065374275       13.2381879784        2.4010314810
Ti         5.6685701396        1.8881315626        4.8036687916
Ti        11.3519737720        0.0026658595       -0.0025586995
Ti         3.7742581135        0.0056579919       -0.0081455773
Ti        13.2373798636        1.8881031332        4.8099640814
Ti        13.2371214290        0.0024340222        7.2112905519
Ti         3.7748846565        1.8997249622        2.4054459735
Ti         1.8851263344        5.6662841912        4.8129409716
Ti        -0.0026432581       11.3528585922        0.0006950079
Ti         0.0000445412        5.6668916013        2.3972532231
Ti         1.8775016781       11.3533791785        7.2091185294
Ti        -0.0007383294        7.5674686270        0.0048338813
Ti         1.8732811730        9.4622635461        4.8188440353
Ti         7.5715175620        1.8821271644        2.4081092138
Ti         9.4647430158        0.0029908231        7.2140068881
Ti         1.8825896149        7.5658380131        7.2077315842
Ti        -0.0229755886        9.4617750259        2.3960889190
Ti         9.4645897480        1.8882891544        4.8081108687
Ti         7.5717703566        0.0047589471       -0.0110655194
Ti         3.7746509215        3.7742852062       -0.0062187260
Ti        13.2363902736       13.2392877935        4.8085343544
Ti        11.3543957542        5.6676467667        2.3980925312
Ti         5.6741426776       11.3676956177        7.2212549226
Ti        13.2375781829        3.7753600574        7.2088216989
Ti         3.7793969788       13.2945852732        2.4244196222
Ti         5.6659088579        5.6580588632        4.8108915464
Ti        11.3529984081       11.3535425494       -0.0012655960
Ti        11.3515857210       13.2391974901        2.4058136861
Ti         5.6679070310        3.7697795761        7.2178810843
Ti         3.7758638257       11.3573081700       -0.0370758766
Ti        13.2379580475        5.6669742871        4.8146191333
Ti         5.6717231867       13.2467496156        4.8066810147
Ti        11.3517514011        3.7747035048        0.0000956565
Ti        13.2357927164       11.3525788070        7.2083687500
Ti         3.7734120321        5.6548826919        2.4009866243
Ti         3.7726669413        7.5594911840       -0.0051235550
Ti        13.2374199213        9.4625198395        4.8193458388
Ti         7.5686627041        5.6276233719        2.4160627592
Ti         9.4690515814       11.3550557076        7.2119525446
Ti        13.2385205920        7.5684626807        7.2046376481
Ti         3.6802524732        9.4256688243        2.3756438198
Ti         9.4666588545        5.6676237219        4.8135780273
Ti         7.5751084261       11.3627970721       -0.0152193553
Ti        11.3753101262        9.4626758809        2.3980201888
Ti         5.6647726219        7.5526112826        7.2188159479
Ti         5.6640770710        9.4613729561        4.8844101500
Ti        11.3531494561        7.5678710856        0.0026060902
Ti         9.4647738920        3.7739946953        7.2112204519
Ti         7.5741541696       13.2493040885        2.4113198402
Ti         7.5719403919        3.7737421615       -0.0081436549
Ti         9.4649712930       13.2399024241        4.8065417431
Ti         7.5698418695        7.5640361001       -0.0250889710
Ti         9.4760373610        9.4623383269        4.8195441501
Ti         7.6702368352        9.4820555831        2.3759726328
Ti         9.4699065713        7.5669487835        7.2071168715
O         0.0007682972       -0.0011406462        1.9833055476
O         1.8848138147        1.8872165085        6.7906442527
O         0.0024640864        1.8856684155        4.3852172867
O         1.8896822430       -0.0003839233        9.1936118981
O         1.8861093304       -0.0021486259        5.2273929933
O         0.0000820687        1.8867815827        0.4216618437
O         1.8893832104        1.8878276509        2.8262773941
O         0.0026096944        0.0012764495        7.6334210290
O         0.0010044803        3.7767755900        1.9777745461
O         1.8821278850       13.2351677349        6.7887330633
O        11.3506019615        1.8844482919        4.3856791144
O         5.6704165277       -0.0011394627        9.1963771866
O         1.8857831518        3.7770530200        5.2326301715
O        -0.0037337904       13.2356776009        0.4223221432
O         5.6720452402        1.8853822521        2.8253751452
O        11.3506815198        0.0005361836        7.6325920483
O         3.7764423918        0.0005043995        7.6371284668
O        13.2370131303        1.8847828233        2.8251464565
O        13.2375615812        0.0002441480        9.1938578108
O         3.7765158246        1.8870400837        4.3800056146
O         1.8831324019        5.6742852363        6.7913279768
O        -0.0070162352       11.3492678336        1.9801370440
O        -0.0001577761        5.6738357864        0.4202997842
O         1.8896336180       11.3473938054        5.2277748632
O        -0.0025943973        7.5692940092        1.9826172974
O         1.8826246074        9.4631780205        6.7859033191
O         7.5652601590        1.8835767896        4.3857003507
O         9.4611985949        0.0003319203        9.1894213244
O         1.8897760490        7.5720794971        5.2253750946
O        -0.0050397800        9.4635706075        0.4258110792
O         9.4606602107        1.8829611489        2.8306386448
O         7.5650662818        0.0014193088        7.6299757864
O         3.7723262948        0.0132198216        1.9811749285
O        13.2378651190        1.8870776932        6.7898151790
O         0.0031985780        5.6568443883        4.3867201251
O         1.8924207065       11.3531485119        9.1956991396
O        13.2379422225        0.0003583603        5.2290569162
O         3.7694055741        1.8880954562        0.4186003921
O         1.8909534958        5.6576458509        2.8244893723
O         0.0011726685       11.3533347123        7.6325432034
O        11.3537092361        1.8872347443        0.4215766057
O         5.6550799736       -0.0009821236        5.2263316998
O         5.6556471594        1.8868679378        6.7905385212
O        11.3527420324        0.0001489203        1.9822875281
O         1.8884635289        3.7695173222        9.1948871175
O         0.0043446258       13.2400108055        4.3813953916
O         0.0023372984        3.7696053995        7.6320501818
O         1.8967976037       13.2212537469        2.8165440955
O         3.7712700443        3.7783401426        1.9746822903
O        13.2376814579       13.2357940523        6.7888559999
O        11.3491661394        5.6556052717        4.3848435253
O         5.6728615517       11.3582375624        9.1983868755
O        13.2379901510        3.7767682601        5.2335724787
O         3.7660506621       13.2261388672        0.4495823479
O         5.6738487553        5.6704153573        2.8241496342
O        11.3501997238       11.3540325239        7.6315321695
O        11.3539819711       13.2357957887        0.4228675408
O         5.6558695706        3.7767293797        5.2318299683
O         3.7772650793       11.3572464677        7.6260598317
O        13.2364386739        5.6575407952        2.8240454205
O         5.6564286536       13.2397093159        6.7894090727
O        11.3530244712        3.7778240629        1.9785151450
O        13.2373201019       11.3532532854        9.1947658091
O         3.7779249103        5.6539147327        4.3803598763
O         5.6545284717        5.6689761148        6.7914169148
O        11.3561325584       11.3491724568        1.9808149216
O        13.2365030964        3.7697249622        9.1946673157
O         3.7780322368       13.2481366167        4.3837050285
O        11.3567255198        5.6738072821        0.4202969894
O         5.6575476136       11.3460318022        5.2235247813
O         3.7765573101        3.7688951745        7.6348001960
O        13.2372640451       13.2369862899        2.8247142275
O        13.2378536284       11.3507514210        5.2289695904
O         3.7646568738        5.6733432623        0.4193343718
O         5.6689344764       13.2266646185        2.8223407794
O        11.3504373554        3.7691045306        7.6319325366
O         3.8162476692       11.3376162368        2.0229961394
O        13.2382734282        5.6739462426        6.7911021458
O        11.3492277677       13.2384165959        4.3867123105
O         5.6734533938        3.7707062898        9.1970862851
O         3.8044185283        7.5579253820        1.9847574506
O        13.2379495764        9.4632767247        6.7871354104
O         7.5638524573        5.6548464894        4.3894628545
O         9.4592063090       11.3529572058        9.1916083221
O        13.2382862769        7.5680843591        5.2274477519
O         3.7655830830        9.4708631601        0.4273313863
O         9.4557159975        5.6756691573        2.8243439790
O         7.5668864404       11.3565310679        7.6290524603
O        11.3584598959        9.4631918239        0.4258836608
O         5.6528581742        7.5709900206        5.2234862916
O         5.6548641941        9.4636416047        6.8102929010
O        11.3593617800        7.5694417805        1.9820550371
O         9.4606497702        3.7706526451        9.1902103062
O         7.5627360591       13.2458173892        4.3851510200
O         7.5653472125        3.7697496111        7.6303458981
O         9.4586334698       13.2382183458        2.8292591827
O         7.5795331227       -0.0017440839        1.9815257818
O         9.4689396401        1.8871387341        6.7913647289
O         0.0020105944        9.4676110242        4.3884945910
O         1.8918372291        7.5852546229        9.1970934542
O         9.4676774331       -0.0002977067        5.2270020265
O         7.5826136092        1.8869218085        0.4187019634
O         1.8590053254        9.4620381774        2.8342086572
O         0.0031297897        7.5831849931        7.6311568310
O         7.5800762426        3.7707319019        1.9771000320
O         9.4702562056       13.2353447428        6.7897907288
O        11.3501834689        9.4697975436        4.3890852695
O         5.6699661677        7.5802336448        9.1973576357
O         9.4677266069        3.7789185148        5.2309158889
O         7.5865466938       13.2364926797        0.4244351924
O         5.6693119596        9.4734376572        2.7623695565
O        11.3510498616        7.5836642241        7.6307858018
O         3.7760238330        7.5812340082        7.6346953931
O        13.2370833009        9.4693147084        2.8331569789
O        13.2366978562        7.5840348101        9.1956435591
O         3.8014687721        9.4657179225        4.3427626229
O         9.4712896885        5.6743936234        6.7914101006
O         7.5317556780       11.3484038669        1.9867618457
O         7.5865635481        5.6830548475        0.4385109344
O         9.4597374342       11.3465845340        5.2261610728
O         7.5279215269        7.5813233761        2.0130253183
O         9.4697026792        9.4634433196        6.7868955853
O         7.5338815602        9.4696171678        4.3476632230
O         9.4580689543        7.5843909737        9.1915309499
O         9.4618864887        7.5717469723        5.2256990524
O         7.5835717835        9.4613073742        0.4237650613
O         9.4904499373        9.4748131239        2.8403708240
O         7.5641172331        7.5804949126        7.6267360876
     192
 i =        9, E =     -5771.6203183160
Ti        -0.0013097060        0.0036103250        0.0002564377
Ti         1.8848313005        1.8892001564        4.8066302826
Ti        -0.0007050098        1.8888889139        2.4023197801
Ti         1.8835118051        0.0042525920        7.2127388231
Ti        -0.0008236664        3.7749258102        0.0027531506
Ti         1.8811896505       13.2402805248        4.8082060456
Ti        11.3522732905        1.8881936317        2.4043548173
Ti         5.6685696266        0.0093228484        7.2213124804
Ti         1.8837191869        3.7747839421        7.2107365745
Ti        -0.0056356366       13.2392723125        2.4000459756
Ti         5.6683331355        1.8888999471        4.7988638655
Ti        11.3523374823        0.0034232251       -0.0019130086
Ti         3.7728140204        0.0063741415       -0.0081790398
Ti        13.2372332850        1.8883522833        4.8094453072
Ti        13.2371289093        0.0035680363        7.2110506464
Ti         3.7738755058        1.9006172539        2.4071555041
Ti         1.8842178318        5.6657384759        4.8120157735
Ti        -0.0039406847       11.3537535392        0.0024672223
Ti        -0.0006683877        5.6663905743        2.3961097165
Ti         1.8759072994       11.3547335897        7.2079788284
Ti        -0.0026607707        7.5670400586        0.0067681590
Ti         1.8747661982        9.4624894560        4.8209361934
Ti         7.5718132799        1.8829025598        2.4110578276
Ti         9.4656965188        0.0040271875        7.2142260640
Ti         1.8809562353        7.5658399458        7.2072975173
Ti        -0.0271051560        9.4617137538        2.3951504708
Ti         9.4648494321        1.8883265432        4.8058740570
Ti         7.5723059260        0.0053414404       -0.0123574146
Ti         3.7733568559        3.7726471744       -0.0088854129
Ti        13.2363759379       13.2408909358        4.8089233061
Ti        11.3542843883        5.6681685639        2.3971540786
Ti         5.6744519208       11.3726957281        7.2224308396
Ti        13.2372047926        3.7749055501        7.2083447180
Ti         3.7781618688       13.2932192642        2.4277691410
Ti         5.6650761213        5.6586099875        4.8096074250
Ti        11.3543279103       11.3546067871        0.0008344018
Ti        11.3517319675       13.2411109967        2.4048214853
Ti         5.6683620286        3.7681248567        7.2186703419
Ti         3.7753524974       11.3591131129       -0.0328682276
Ti        13.2376899041        5.6662780451        4.8152179625
Ti         5.6716242456       13.2503939285        4.8055333339
Ti        11.3529073844        3.7748977499        0.0008579651
Ti        13.2359790298       11.3547217406        7.2072348415
Ti         3.7743873649        5.6593072608        2.4011820151
Ti         3.7727166630        7.5545039489       -0.0068185208
Ti        13.2371750070        9.4625619519        4.8278431744
Ti         7.5666472962        5.6353228050        2.4176896283
Ti         9.4699777986       11.3563018870        7.2119788960
Ti        13.2382306945        7.5669331703        7.2036580335
Ti         3.6587256012        9.4347927721        2.3695454725
Ti         9.4664737728        5.6681409359        4.8119181823
Ti         7.5719385420       11.3652850302       -0.0160062832
Ti        11.3790254128        9.4636401296        2.3975810073
Ti         5.6634018940        7.5469628989        7.2213641113
Ti         5.6653124529        9.4637935471        4.8861033301
Ti        11.3543529996        7.5675056212        0.0040603934
Ti         9.4659985541        3.7747344771        7.2105755039
Ti         7.5698791502       13.2508391046        2.4130816544
Ti         7.5729940822        3.7747268929       -0.0079630542
Ti         9.4651010989       13.2430806294        4.8050285542
Ti         7.5682592470        7.5628387124       -0.0235288124
Ti         9.4745089018        9.4639376837        4.8225827275
Ti         7.6887636154        9.4784475959        2.3681605596
Ti         9.4703967134        7.5662752973        7.2079605811
O         0.0018278088        0.0009447433        1.9833659977
O         1.8844716078        1.8865108436        6.7893764668
O         0.0023105495        1.8846490169        4.3856983103
O         1.8885480805       -0.0001541548        9.1932140432
O         1.8838569162        0.0010424417        5.2276627308
O         0.0008584564        1.8867322540        0.4221651571
O         1.8885529851        1.8856403046        2.8244305235
O         0.0023657924        0.0009365485        7.6341527927
O         0.0004894623        3.7767990678        1.9777731359
O         1.8828700613       13.2347914830        6.7864753388
O        11.3507266026        1.8851387172        4.3863910506
O         5.6697428435       -0.0005095847        9.1961466464
O         1.8845722865        3.7772517274        5.2332008907
O         0.0002893441       13.2359244199        0.4211772733
O         5.6717601973        1.8858397358        2.8218381652
O        11.3511602076        0.0006428993        7.6330574264
O         3.7756221278       -0.0002136730        7.6385487907
O        13.2365659594        1.8849688133        2.8252108612
O        13.2364951722        0.0010397060        9.1929841766
O         3.7761802010        1.8856943530        4.3801940301
O         1.8840648090        5.6752884749        6.7909373879
O        -0.0029396942       11.3488942436        1.9810920343