     192
 i =        7, E =     -5771.6111345602
Ti         0.0002316159        0.0002457609        0.0000474594
Ti        -0.0009038666       -0.0004310802        0.0001230690
Ti        -0.0000471563       -0.0004046210        0.0000099936
Ti        -0.0008073584        0.0006264817        0.0001408395
Ti        -0.0000363979       -0.0002299802       -0.0001270987
Ti        -0.0007483616       -0.0015657203       -0.0000024551
Ti         0.0004513945        0.0001017366       -0.0000094344
Ti         0.0002354514        0.0011664453        0.0012632326
Ti        -0.0006061438       -0.0001660628        0.0002215539
Ti         0.0007542376       -0.0004774608       -0.0001633637
Ti         0.0001577200       -0.0000184431       -0.0002548726
Ti         0.0004269492        0.0005756695       -0.0001418062
Ti        -0.0005887723        0.0027425555       -0.0023658013
Ti        -0.0001901227       -0.0001070738        0.0000470219
Ti        -0.0001829956        0.0005220678       -0.0000362652
Ti        -0.0005608396        0.0008114017        0.0001435221
Ti        -0.0003619686        0.0003725502        0.0004376611
Ti         0.0007638181        0.0010025066        0.0006374358
Ti         0.0000504443       -0.0001346824       -0.0000908829
Ti        -0.0018958376        0.0006007586       -0.0015004391
Ti         0.0000741963       -0.0007442391        0.0000129300
Ti        -0.0046470736        0.0010811605        0.0021260198
Ti         0.0003682748       -0.0005113488        0.0001051509
Ti         0.0004895082        0.0005622432        0.0003013841
Ti        -0.0004805077       -0.0007388687       -0.0005842340
Ti         0.0003057964        0.0006751148       -0.0007823274
Ti         0.0006788866        0.0001410153        0.0000383128
Ti         0.0001419847        0.0008736782       -0.0018555680
Ti        -0.0001983669       -0.0001343733       -0.0020603638
Ti        -0.0004563682        0.0001301500        0.0005634373
Ti        -0.0005961249        0.0003159959       -0.0001769008
Ti         0.0013097104        0.0037284410        0.0022501070
Ti        -0.0002648093       -0.0001936834       -0.0000572555
Ti        -0.0004182177        0.0087283577        0.0022132153
Ti         0.0001716191        0.0003834516       -0.0006171652
Ti         0.0002967544        0.0007084684        0.0000675347
Ti         0.0003412613        0.0000881260       -0.0000724349
Ti         0.0001184874       -0.0005768624        0.0013058666
Ti         0.0010164662        0.0010033989       -0.0091904782
Ti        -0.0001742679       -0.0001739119        0.0003903728
Ti         0.0004891769       -0.0006375574        0.0003594036
Ti         0.0001683695        0.0000602157        0.0000299087
Ti        -0.0003212621        0.0007145169       -0.0005765728
Ti         0.0009504145        0.0012313451        0.0001278771
Ti         0.0017619218       -0.0035854191       -0.0019776009
Ti        -0.0001216982       -0.0000783638        0.0028606282
Ti        -0.0003225358       -0.0044415089        0.0010056514
Ti         0.0005733048        0.0006731742       -0.0006744158
Ti        -0.0002113069       -0.0007884528       -0.0005001964
Ti        -0.0168419514        0.0005087499       -0.0025319187
Ti         0.0001479197        0.0013135350       -0.0002439419
Ti        -0.0016158101        0.0028285960       -0.0027364530
Ti         0.0008049082       -0.0006743875       -0.0009141143
Ti        -0.0006005141       -0.0038362894        0.0029231943
Ti        -0.0003289921        0.0002088100        0.0255047488
Ti        -0.0006487064       -0.0010895501        0.0004129268
Ti         0.0004969352       -0.0001125601        0.0002709604
Ti        -0.0006851984       -0.0001173631        0.0004135812
Ti         0.0003031070       -0.0014033991       -0.0019597425
Ti         0.0003974881       -0.0005311163        0.0005927908
Ti        -0.0013163009       -0.0018729850       -0.0044785255
Ti         0.0049205139       -0.0009216506        0.0025057047
Ti         0.0197352668       -0.0018910354       -0.0032862218
Ti         0.0010881122       -0.0008577588       -0.0007901250
O        -0.0010094063       -0.0001925603        0.0001371410
O        -0.0003774454       -0.0002557809        0.0004857847
O         0.0004513493        0.0002776015        0.0000359466
O         0.0009382822        0.0007319291       -0.0002899952
O        -0.0004175214       -0.0006397215       -0.0002298553
O        -0.0003995390       -0.0000919985       -0.0002636622
O         0.0007016902        0.0008759804        0.0002517154
O         0.0005238672        0.0004843678        0.0000027439
O        -0.0002625649        0.0002161307        0.0000691789
O        -0.0011721786       -0.0007269835       -0.0006328982
O        -0.0002171498       -0.0000926144        0.0001451931
O        -0.0005121184        0.0007482209       -0.0006781560
O        -0.0003504079        0.0003051174       -0.0004046299
O        -0.0017203655       -0.0004009014        0.0001211959
O        -0.0000300029        0.0002487451        0.0008492804
O        -0.0001732837        0.0002632181       -0.0001591066
O         0.0003851654        0.0007693171        0.0012001136
O        -0.0001391166        0.0000555909       -0.0001521430
O        -0.0000760598        0.0002478628        0.0001665734
O         0.0003909456        0.0005908155       -0.0008186237
O        -0.0008252793        0.0006922820        0.0002040138
O        -0.0031340615       -0.0008651760       -0.0010595309
O        -0.0005115032        0.0005836049        0.0000608347
O        -0.0020631421       -0.0008520528        0.0017645616
O        -0.0014322334        0.0008093608       -0.0006666004
O        -0.0019218434        0.0001659800       -0.0015791888
O        -0.0005705481       -0.0002353015       -0.0007714662
O        -0.0005723551        0.0003696116       -0.0001341734
O        -0.0015517634        0.0014128312        0.0003938898
O        -0.0019107683       -0.0000937645        0.0010999855
O        -0.0006912180       -0.0004531122        0.0003772628
O        -0.0006655703        0.0006640994        0.0005051270
O         0.0002540902       -0.0081968070        0.0027628023
O         0.0000009998       -0.0001563150        0.0001219529
O         0.0005824683       -0.0003584070        0.0003889213
O         0.0023482554        0.0003123203       -0.0003963829
O        -0.0000941423       -0.0001981304        0.0000399632
O        -0.0002435884        0.0011008618       -0.0014871673
O         0.0009127363       -0.0007279614       -0.0003281821
O         0.0012141186        0.0002365201       -0.0007755263
O         0.0002584040       -0.0002016929       -0.0002471489
O         0.0001713190       -0.0020332361       -0.0013982180
O         0.0000522847       -0.0002486796        0.0010589792
O         0.0001369220       -0.0002804843        0.0001294048
O         0.0004108276       -0.0003000650       -0.0000045967
O         0.0001781174        0.0009188972        0.0001818578
O         0.0003865115       -0.0001901374       -0.0000063883
O         0.0024002410        0.0017272574       -0.0006975239
O        -0.0002537360        0.0002404046        0.0010743698
O        -0.0001400496       -0.0004772504       -0.0003566860
O        -0.0000724491       -0.0005697541        0.0004667629
O        -0.0008579851        0.0019874053       -0.0030542161
O         0.0001009233        0.0001972320        0.0000942880
O        -0.0005762272        0.0003717752        0.0022950431
O         0.0006238598       -0.0017962696        0.0009469848
O        -0.0005473488        0.0004459189       -0.0008505213
O         0.0004227623       -0.0005814758        0.0001890912
O        -0.0000585402        0.0015253409       -0.0012370547
O         0.0010644489        0.0013296638        0.0057377071
O        -0.0006134514       -0.0001536132       -0.0006099909
O         0.0004095608       -0.0017288700        0.0002909759
O         0.0005399543        0.0002386784        0.0001071848
O         0.0002039235        0.0002124979        0.0009977982
O         0.0002207752       -0.0018324823       -0.0003766460
O        -0.0002765414        0.0011293359        0.0006868328
O         0.0013398875       -0.0006717054       -0.0006512554
O        -0.0001798583       -0.0001873604        0.0001147997
O         0.0010590497        0.0041820696       -0.0014403908
O         0.0012116133        0.0004356867        0.0000018987
O         0.0006542699       -0.0057397150        0.0002731854
O         0.0003864384       -0.0005257822        0.0005389731
O         0.0010531875        0.0003865650       -0.0008283587
O        -0.0001068306       -0.0002894668        0.0004626186
O        -0.0014078881        0.0000363475       -0.0012309745
O        -0.0019493621        0.0033724606        0.0001820085
O        -0.0002123223       -0.0003615665       -0.0001204749
O         0.0021044439       -0.0103635599        0.0057803957
O         0.0001543510        0.0005367330       -0.0002416769
O        -0.0005467474        0.0007117177        0.0005938721
O         0.0003160561       -0.0005873151       -0.0006934390
O         0.0001369971        0.0052935893        0.0013374752
O         0.0000144269        0.0001479834       -0.0009117382
O        -0.0008637556       -0.0024705665       -0.0008775241
O        -0.0018107163        0.0007501727        0.0005235141
O         0.0001525453        0.0006093366        0.0005624691
O        -0.0029328269       -0.0004062697        0.0036819708
O        -0.0011506909       -0.0003289352       -0.0002518189
O        -0.0011712057        0.0014538159        0.0012446860
O         0.0016781851        0.0003632573        0.0012565979
O        -0.0006311213        0.0052564764        0.0003666777
O        -0.0000090882        0.0004495471       -0.0128476584
O         0.0024102750        0.0011400541       -0.0009297220
O        -0.0007499347       -0.0005037596       -0.0003556659
O        -0.0008337013        0.0029645756       -0.0004383313
O        -0.0005412339       -0.0005943401        0.0009907440
O        -0.0012070781        0.0013540419       -0.0003464828
O         0.0001205591       -0.0013793751        0.0013565387
O         0.0003325295       -0.0001123513        0.0004430107
O         0.0005165597       -0.0004584274        0.0027075327
O         0.0017073720       -0.0006587884        0.0007573571
O         0.0002945664       -0.0004502058       -0.0004745372
O         0.0002229720       -0.0010762460       -0.0013751173
O         0.0101753736       -0.0027111816       -0.0030849266
O         0.0007081351       -0.0004440366       -0.0006771225
O        -0.0001423730        0.0065054427        0.0021737382
O         0.0007840395       -0.0006921895       -0.0000168302
O        -0.0007691757        0.0001505831        0.0028592843
O        -0.0000602459       -0.0020605291       -0.0033571890
O         0.0003412135        0.0004666677       -0.0003168141
O         0.0013587171        0.0000955579       -0.0006257284
O        -0.0020771416       -0.0001909942       -0.0149033596
O        -0.0007014976       -0.0002815949       -0.0009092756
O         0.0009168621       -0.0014174585        0.0007602764
O        -0.0002662338       -0.0000558813       -0.0019250027
O        -0.0003554399       -0.0002145482        0.0009405212
O         0.0060890769       -0.0017603389       -0.0043752482
O         0.0009990944        0.0006610507       -0.0001887473
O        -0.0020154947       -0.0082857698        0.0017452554
O         0.0007465704        0.0008530867        0.0008145752
O         0.0011280773       -0.0011917048        0.0005422537
O        -0.0031460461        0.0099577110        0.0033701695
O         0.0017004695        0.0002562652       -0.0018370629
O        -0.0075809417        0.0009205562       -0.0043153540
O        -0.0013687530       -0.0003971099       -0.0006215406
O         0.0015558571        0.0015322714        0.0014456865
O         0.0024432297        0.0011597128        0.0035625414
O        -0.0117609467        0.0016581496       -0.0030037736
O        -0.0012120659       -0.0013832830        0.0049564013
     192
 i =        8, E =     -5771.6180287466
Ti         0.0000288209       -0.0002993299        0.0004927716
Ti         0.0000346746       -0.0002042473       -0.0006579922
Ti         0.0001185348       -0.0004013724        0.0001959487
Ti        -0.0003992962       -0.0001083347       -0.0003175813
Ti         0.0001199344        0.0000497207        0.0003673448
Ti         0.0006159511       -0.0001405987       -0.0022318355
Ti         0.0002547107       -0.0001051711        0.0001731142
Ti        -0.0000842098        0.0002148167        0.0004468775
Ti        -0.0005233826       -0.0000029993       -0.0002929412
Ti         0.0026341119       -0.0000563227        0.0002359480
Ti         0.0000519324       -0.0003649096       -0.0019975539
Ti         0.0002433784        0.0000481746        0.0003855734
Ti        -0.0002463904       -0.0013975747       -0.0011060883
Ti        -0.0000640985       -0.0001292568       -0.0003241756
Ti        -0.0000023680        0.0002445918       -0.0000028152
Ti        -0.0000192390        0.0013065142        0.0015929358
Ti         0.0005870991       -0.0000327483       -0.0004047700
Ti         0.0006524731        0.0004131495        0.0010437906
Ti         0.0002356970       -0.0000013753       -0.0002682427
Ti        -0.0013676126        0.0004316950       -0.0000521415
Ti        -0.0002076027        0.0000396795        0.0009374481
Ti         0.0010739768       -0.0001734003        0.0020205251
Ti        -0.0002058090       -0.0017887149        0.0016833099
Ti         0.0002732364        0.0001795201       -0.0000081013
Ti        -0.0002214882       -0.0000773134       -0.0007003517
Ti        -0.0002491824        0.0001858833       -0.0020985683
Ti        -0.0002231800       -0.0002159334       -0.0008343679
Ti         0.0000805905       -0.0002215268       -0.0003617451
Ti        -0.0003943341        0.0003490005       -0.0007913289
Ti         0.0003206514        0.0002015631       -0.0000035459
Ti        -0.0010658213        0.0000288177       -0.0000448316
Ti         0.0007815915        0.0036095518        0.0015311486
Ti        -0.0001500257       -0.0000818467       -0.0001129824
Ti         0.0004394821       -0.0031268496       -0.0015078849
Ti         0.0002295420        0.0004165134       -0.0024093373
Ti         0.0006797470        0.0002521013        0.0009673884
Ti         0.0001270751        0.0002597936       -0.0004868049
Ti         0.0001904068        0.0000747493        0.0003998323
Ti         0.0008309183        0.0005715040        0.0045994159
Ti        -0.0002150065       -0.0001018860       -0.0000710003
Ti        -0.0003723540       -0.0000619893       -0.0024350459
Ti         0.0003419883        0.0002819942        0.0004211274
Ti         0.0001088145        0.0006436744       -0.0001035925
Ti         0.0018619144        0.0011088666        0.0012185284
Ti         0.0013287791        0.0002581874       -0.0000658022
Ti         0.0001006365       -0.0001276031        0.0031932832
Ti        -0.0012121169        0.0039610981       -0.0009554521
Ti         0.0002013258        0.0003286794       -0.0004342323
Ti        -0.0001358344       -0.0005817218       -0.0001935038
Ti        -0.0019688300        0.0100408617       -0.0004905141
Ti        -0.0007885965        0.0001840706       -0.0014323839
Ti        -0.0021565831       -0.0003283693       -0.0000414537
Ti         0.0019723714       -0.0002529376       -0.0022131321
Ti        -0.0007070126       -0.0035273982        0.0015355897
Ti         0.0000876291        0.0001895761        0.0086654612
Ti        -0.0001180808       -0.0003424789        0.0008743378
Ti         0.0002924843        0.0001991865       -0.0001370254
Ti        -0.0028513107        0.0002461611        0.0011866523
Ti         0.0001307511        0.0012552475       -0.0010872563
Ti        -0.0007848627        0.0003936774       -0.0003892223
Ti        -0.0011248099       -0.0004685175        0.0045766081
Ti        -0.0011066521       -0.0000875921        0.0027748461
Ti         0.0033766720       -0.0063486504        0.0003880925
Ti         0.0008416586       -0.0004681654        0.0002031580
O         0.0003290183        0.0014328109       -0.0002255183
O         0.0000075416       -0.0002356472       -0.0000929988
O         0.0000077936       -0.0002272788        0.0001147079
O        -0.0003936038       -0.0000574453       -0.0000205449
O        -0.0003259748        0.0021062055        0.0004802124
O         0.0002039989        0.0000298479        0.0000011569
O        -0.0003726174       -0.0005532304       -0.0003235319
O         0.0000410317       -0.0001401896       -0.0000276642
O        -0.0000481094        0.0000259831       -0.0001818434
O         0.0003620728       -0.0002557547        0.0001310763
O         0.0000847758        0.0001408973        0.0001582188
O         0.0000422437        0.0000183869       -0.0004850223
O        -0.0001578028       -0.0001827375        0.0004788087
O         0.0010129961        0.0000084020       -0.0005846549
O         0.0001305482        0.0000371839       -0.0003918364
O         0.0000913842       -0.0000206833       -0.0000151496
O         0.0000574544       -0.0002323330        0.0005300466
O        -0.0003316722        0.0000252027        0.0000867082
O        -0.0006393125        0.0001017913       -0.0002809444
O         0.0000399086       -0.0003581474       -0.0000835767
O         0.0003194802        0.0004325131        0.0000454554
O         0.0012970447       -0.0004182727        0.0000160049
O         0.0003344084        0.0002333156       -0.0001884517
O        -0.0002852852        0.0003860841        0.0003718271
O         0.0004068470       -0.0002163798       -0.0000652400
O         0.0007710514        0.0000380214       -0.0004018127
O        -0.0001289801        0.0002965793        0.0001755383
O         0.0002170631        0.0000357312       -0.0004513285
O        -0.0003410798       -0.0004628066        0.0005661690
O         0.0011853737       -0.0003635655        0.0002689781
O         0.0000905473        0.0004632503       -0.0001436362
O        -0.0002841316       -0.0002045951        0.0002454120
O        -0.0001747727       -0.0002430266        0.0013935133
O        -0.0000153008       -0.0000518086        0.0000174863
O        -0.0003167220       -0.0000509521       -0.0001486810
O        -0.0032492906        0.0001889902       -0.0012947488
O        -0.0000111041        0.0004320225        0.0001266972
O        -0.0001132096       -0.0006357642       -0.0002931112
O        -0.0014491659        0.0003737551       -0.0002328902
O         0.0004339615        0.0000818001       -0.0003205448
O        -0.0001087339       -0.0000712696       -0.0000000166
O         0.0000693327        0.0021605665        0.0006153808
O        -0.0000347545       -0.0001275313        0.0001952225
O         0.0001397549        0.0004499025       -0.0000437525
O        -0.0004192045       -0.0000108437       -0.0002870231
O        -0.0005259511       -0.0005471049        0.0001109253
O        -0.0000007856       -0.0000005121        0.0000354670
O        -0.0035245012        0.0012820427        0.0015630822
O         0.0002344015       -0.0012548546       -0.0000266540
O         0.0000524775       -0.0001177826        0.0000045250
O         0.0004391763        0.0000552114        0.0001440481
O         0.0012495556       -0.0003971192       -0.0032538781
O        -0.0000631813       -0.0000392518        0.0002062295
O        -0.0001175693        0.0019973061        0.0000089008
O        -0.0016443553       -0.0025099703        0.0009589851
O         0.0000595540       -0.0000572120        0.0000303127
O        -0.0002362363       -0.0001933107       -0.0001425059
O        -0.0000298150       -0.0009504743        0.0002277519
O         0.0005019604       -0.0004771821        0.0017142951
O         0.0003350411       -0.0001419508        0.0003509760
O         0.0000365643       -0.0020118843        0.0008826504
O        -0.0003159153       -0.0004398419       -0.0001064972
O        -0.0009231171        0.0001602434       -0.0007091457
O        -0.0007526911       -0.0001367661        0.0004863991
O         0.0000612955        0.0012430190        0.0011431560
O        -0.0004324549        0.0004502208        0.0001930316
O        -0.0000432555       -0.0000629413       -0.0002213442
O        -0.0004012128       -0.0009467311        0.0019501489
O        -0.0008008043        0.0002265168       -0.0004003359
O        -0.0002917115        0.0014279856        0.0010916498
O         0.0001137617        0.0001086633        0.0002007977
O        -0.0013515080       -0.0000143386        0.0003014713
O         0.0000209465        0.0001029558        0.0001285037
O         0.0004076552       -0.0003401032       -0.0012050160
O         0.0018158325        0.0030106259        0.0011982322
O         0.0000663653        0.0000835576       -0.0000815467
O         0.0016650695       -0.0051136314       -0.0010287420
O        -0.0001246762        0.0002161490        0.0000867570
O         0.0005055491       -0.0004147932       -0.0001048662
O         0.0002362294        0.0000705190       -0.0004122461
O         0.0007176241       -0.0008177835       -0.0001234298
O        -0.0000625452        0.0000707470       -0.0003125405
O         0.0001622898       -0.0010626226        0.0014872787
O         0.0013942922        0.0000924517       -0.0000871972
O        -0.0001940015        0.0001087548        0.0002238731
O        -0.0014382874       -0.0023086280       -0.0017034986
O         0.0023827286        0.0004450050        0.0006740532
O        -0.0007510042       -0.0004139354       -0.0000340308
O        -0.0010858677        0.0002752708        0.0004334671
O         0.0002209883        0.0000395244        0.0012007155
O        -0.0000214405        0.0000560377       -0.0061407507
O        -0.0010316320        0.0008650350        0.0001075298
O         0.0000973354       -0.0000024828       -0.0001635718
O         0.0004186792       -0.0016554425        0.0006506702
O        -0.0000959010        0.0001168615        0.0003157727
O         0.0009463103       -0.0014593751       -0.0002287999
O        -0.0001127437        0.0023298449       -0.0000373277
O         0.0000089807        0.0000407434       -0.0001183604
O        -0.0008184921        0.0005093137        0.0015443935
O        -0.0019072543       -0.0001658030       -0.0001686863
O         0.0002443252        0.0008352095        0.0005069915
O         0.0002277107        0.0003137767        0.0000426952
O         0.0021930235        0.0001631777       -0.0021604286
O        -0.0000828972       -0.0000270480        0.0002930377
O         0.0000454747       -0.0003484477        0.0009846115
O        -0.0001537437       -0.0002744755       -0.0000014081
O         0.0005828485       -0.0002092045        0.0015403975
O        -0.0012746028        0.0001062320       -0.0025901758
O         0.0001341791       -0.0009438223        0.0002570607
O         0.0003762492       -0.0007597146       -0.0006908206
O        -0.0018468469       -0.0006985289       -0.0138256945
O        -0.0001479619       -0.0000394199       -0.0001631954
O         0.0003932781        0.0001382572       -0.0002362697
O        -0.0008586525       -0.0000264052        0.0000460367
O         0.0001115288       -0.0001796986       -0.0007481235
O         0.0011173734        0.0000159864        0.0015047494
O        -0.0003153199        0.0005951301        0.0002189414
O        -0.0002024711        0.0014296179        0.0004905961
O         0.0002556922       -0.0004322122       -0.0000824898
O         0.0004804379        0.0011844099        0.0003056823
O        -0.0003000506        0.0046455779       -0.0029247757
O        -0.0004343267        0.0001067053       -0.0005025613
O        -0.0002249772        0.0000226397       -0.0004736116
O         0.0025796698       -0.0000510856       -0.0009083594
O         0.0004981188        0.0003925448        0.0003644305
O         0.0028415048        0.0010434674       -0.0017538183
O        -0.0048635955       -0.0003508283       -0.0026084639
O        -0.0007967707        0.0001591457        0.0005548731
     192
 i =        9, E =     -5771.6203183160
Ti         0.0007146862       -0.0001783672        0.0003192693
Ti         0.0002860709       -0.0007248976       -0.0001120627
Ti         0.0005149310       -0.0006918044       -0.0000483348
Ti         0.0000348440       -0.0000578794       -0.0002757639
Ti         0.0004436258       -0.0000832798        0.0000644329
Ti         0.0011109482       -0.0002330803       -0.0021291142
Ti        -0.0001097712        0.0001612910       -0.0000221667
Ti        -0.0001668920        0.0003538205        0.0000636006
Ti        -0.0001072596       -0.0000278331       -0.0002615635
Ti         0.0030994384        0.0000393218        0.0006993234
Ti        -0.0000420380       -0.0000705977       -0.0008316137
Ti        -0.0001124515        0.0000031919       -0.0000092355
Ti        -0.0002140615       -0.0022112983        0.0001287657
Ti        -0.0000805053       -0.0001552405       -0.0001270807
Ti        -0.0000606576        0.0001222880        0.0000887721
Ti         0.0002064090        0.0006209673        0.0006320485
Ti         0.0008200928        0.0003222927       -0.0001681179
Ti         0.0020681890        0.0003114986        0.0001178264
Ti         0.0005624633        0.0000888074        0.0001084180
Ti        -0.0002596221        0.0004263409        0.0010695152
Ti         0.0010242001        0.0001506264        0.0000601036
Ti         0.0023372118        0.0000795121        0.0024530101
Ti        -0.0004467016       -0.0005881273        0.0003362817
Ti         0.0000072104        0.0000515693        0.0000932869
Ti         0.0000970894       -0.0000340350       -0.0000667866
Ti        -0.0002630440        0.0003091266       -0.0011855897
Ti        -0.0003416140        0.0004502093       -0.0001331409
Ti        -0.0001909896       -0.0001167811        0.0002149042
Ti         0.0000499358        0.0002784697        0.0001515411
Ti         0.0003296298       -0.0001834621       -0.0004018154
Ti        -0.0015703184        0.0000638250        0.0003906426
Ti         0.0001146440        0.0020301755        0.0001682028
Ti        -0.0001793373       -0.0000792347       -0.0000208381
Ti         0.0005508416       -0.0059584615       -0.0026608931
Ti         0.0003102433        0.0007310101       -0.0014907994
Ti        -0.0009784623        0.0000813209        0.0001498986
Ti        -0.0003686991       -0.0003790709        0.0000287282
Ti         0.0002934117       -0.0001535295       -0.0001733940
Ti         0.0004792668       -0.0005312347        0.0069217123
Ti        -0.0003838597       -0.0000105598       -0.0003264864
Ti        -0.0007614094       -0.0011993433       -0.0020585692
Ti        -0.0003499503        0.0001221009        0.0002199407
Ti        -0.0000465412        0.0007960012        0.0002458775
Ti         0.0017189321        0.0005442717        0.0008455749
Ti         0.0007809535        0.0024145470        0.0004284950
Ti         0.0000445870        0.0001483990        0.0021700933
Ti        -0.0007790383        0.0044108203       -0.0016199140
Ti        -0.0001504912        0.0004254703        0.0003881019
Ti        -0.0002575801       -0.0006139143        0.0002430817
Ti         0.0031933974        0.0099396099       -0.0008505546
Ti        -0.0009060240        0.0001887252       -0.0011419252
Ti        -0.0012407698       -0.0015718483        0.0004803579
Ti         0.0010131815       -0.0000736596       -0.0013406867
Ti        -0.0003712429       -0.0016785373       -0.0005746293
Ti         0.0001486702        0.0001214079        0.0054401347
Ti        -0.0015101867        0.0000557772        0.0001659908
Ti        -0.0001613791        0.0000577873       -0.0002307519
Ti        -0.0026410176       -0.0008757670        0.0006575755
Ti         0.0000431201        0.0010384169        0.0001547631
Ti        -0.0009400482       -0.0007939169       -0.0003573125
Ti        -0.0002637855        0.0010942738        0.0055422229
Ti        -0.0025883293        0.0001161664        0.0023371230
Ti        -0.0015807089       -0.0052491656        0.0010368193
Ti         0.0003463191       -0.0002452240        0.0008633665
O        -0.0003498923        0.0005774293       -0.0002766979
O         0.0000184759        0.0004038902        0.0001144705
O        -0.0002995507        0.0001972608       -0.0000957361
O        -0.0004891619        0.0000277066        0.0000259070
O        -0.0000422271        0.0008200963        0.0002633112
O        -0.0001340249        0.0003121435       -0.0000692490
O        -0.0005006088        0.0001941978       -0.0000987084
O        -0.0002809609       -0.0000560557       -0.0001100077
O        -0.0000321713        0.0000954722       -0.0001358800
O         0.0001792979        0.0005083635        0.0002508802
O         0.0002637693       -0.0000646051       -0.0000770164
O         0.0003313675       -0.0000680977       -0.0003512938
O        -0.0001370965       -0.0001418864        0.0002262904
O        -0.0002793552        0.0001909651       -0.0001951551
O         0.0001502523       -0.0000150519        0.0001666812
O         0.0000619296        0.0000193986       -0.0001304170
O        -0.0000235496       -0.0000908569        0.0004933764
O        -0.0002013659        0.0000656330        0.0000963702
O        -0.0001665431       -0.0000688786        0.0000154878
O        -0.0002519407        0.0001309002       -0.0004244297
O        -0.0000314669       -0.0000047735       -0.0000672509
O         0.0001161495       -0.0002618002        0.0000442561