     192
 i =        1, E =     -5782.3990381607
Ti        -0.0039332492        0.0147167031       -0.0061478411
Ti        -0.0080253275       -0.0034611099       -0.0160353233
Ti        -0.0063767640        0.0016067523       -0.0151203592
Ti        -0.0066071854        0.0090610206        0.0134166128
Ti        -0.0052639560       -0.0062373415        0.0142695856
Ti         0.0035086250        0.0027513124        0.0027258377
Ti         0.0036973598        0.0030691663       -0.0261109190
Ti         0.0000164020        0.0067570226        0.0044541064
Ti        -0.0002591939       -0.0127301058       -0.0056339878
Ti        -0.0116072342       -0.0035227507        0.0004468177
Ti        -0.0145971301        0.0022314708        0.0002683735
Ti        -0.0048369556       -0.0072596871       -0.0008235416
Ti        -0.0003836237       -0.0052119230       -0.0052502016
Ti         0.0143635777        0.0049659678        0.0229602915
Ti        -0.0141798086        0.0083160572        0.0085321529
Ti         0.0030034880        0.0207110519       -0.0137500294
Ti        -0.0016471930        0.0066660542       -0.0182965804
Ti        -0.0015496192       -0.0006918859       -0.0097953774
Ti         0.0066388386        0.0039693802        0.0044319044
Ti         0.0101924484        0.0072523534       -0.0170019005
Ti        -0.0094213466        0.0071286392       -0.0097723658
Ti        -0.0032345263       -0.0106846456       -0.0315783539
Ti        -0.0018404332       -0.0123073340       -0.0073584510
Ti        -0.0036908471        0.0080686794        0.0006414627
Ti        -0.0012107114       -0.0059765224        0.0095923453
Ti         0.0000817390       -0.0063305694        0.0123418560
Ti        -0.0000179579        0.0012892648        0.0088204204
Ti         0.0143004180        0.0074399865        0.0280314370
Ti         0.0151651136        0.0004197117        0.0057641145
Ti        -0.0105605058        0.0201078037       -0.0079196049
Ti         0.0064628514       -0.0074758574        0.0014332812
Ti        -0.0019422941       -0.0034109730        0.0117049833
Ti         0.0046955373        0.0024442173       -0.0116001604
Ti         0.0053953636        0.0172260819        0.0009671194
Ti         0.0151929188       -0.0087598780       -0.0083670919
Ti         0.0008797184        0.0029056014       -0.0118204167
Ti         0.0008535685        0.0022000280       -0.0018171980
Ti        -0.0034446816        0.0007303038        0.0008725032
Ti        -0.0053339327       -0.0024064241       -0.0160456747
Ti        -0.0107955135        0.0098585267        0.0006453441
Ti        -0.0093334284       -0.0069710345       -0.0060912605
Ti         0.0038756892        0.0135596933        0.0102466449
Ti         0.0078760792        0.0023536694        0.0001832515
Ti         0.0044637666        0.0077447557        0.0058195022
Ti         0.0020460075        0.0101194089       -0.0176119324
Ti         0.0008322247        0.0074401146       -0.0028332440
Ti         0.0027665143        0.0063469993       -0.0023289287
Ti        -0.0077216950        0.0282049553        0.0049159344
Ti        -0.0070391925        0.0000917956        0.0201211496
Ti        -0.0118721869        0.0057798192        0.0005579790
Ti        -0.0032597579        0.0018050797        0.0101172179
Ti         0.0092546871       -0.0000058169       -0.0146767750
Ti         0.0105409925        0.0054300118       -0.0062955176
Ti         0.0059002125       -0.0083914845        0.0053929968
Ti        -0.0125794676        0.0053914480        0.0018088375
Ti         0.0027238809        0.0081922160       -0.0066511204
Ti        -0.0043038730       -0.0022411142       -0.0019010963
Ti         0.0097109941       -0.0072593842       -0.0028848969
Ti         0.0102274729       -0.0026650293        0.0034752612
Ti        -0.0074205153       -0.0083490638        0.0094923498
Ti         0.0015540931        0.0025808856       -0.0047006395
Ti         0.0001897271        0.0008177389        0.0060948346
Ti        -0.0012862892        0.0052388866        0.0043545320
Ti        -0.0111756906        0.0060929778        0.0061767762
O         0.0012815990        0.0015669080       -0.0077763640
O         0.0099428645       -0.0019939642        0.0158285383
O         0.0161277044       -0.0033956073        0.0038859382
O         0.0037033447       -0.0032285308       -0.0047480407
O         0.0008965163        0.0000480098       -0.0063868345
O         0.0055357671       -0.0018769247       -0.0051861922
O         0.0041577780       -0.0112288727       -0.0008658743
O         0.0163145677       -0.0010027706        0.0046917970
O        -0.0030718317       -0.0037201671       -0.0054949475
O        -0.0005747821       -0.0173833285        0.0022490292
O        -0.0129739867       -0.0004381683        0.0172646194
O        -0.0186358791        0.0045737392       -0.0032581763
O        -0.0049627261        0.0104671073        0.0057665975
O         0.0012633070       -0.0032815609        0.0015481326
O         0.0015889911        0.0060215469       -0.0031175402
O         0.0075340132        0.0008258841        0.0022771075
O         0.0006615160       -0.0036520708       -0.0050961914
O        -0.0009894429        0.0030205482       -0.0078459207
O         0.0081518533        0.0086110694       -0.0078993084
O         0.0060833859        0.0007599724        0.0174578786
O        -0.0042500915        0.0095876521        0.0177759119
O        -0.0020483975       -0.0086513332        0.0032064603
O        -0.0061718006       -0.0109001849       -0.0000282038
O        -0.0014330751        0.0149482725        0.0035618459
O        -0.0003600682       -0.0048575245        0.0008877678
O        -0.0095743084       -0.0018728663        0.0192283440
O         0.0175037104        0.0043948076        0.0053438726
O         0.0030803769       -0.0018786141       -0.0054021160
O         0.0085685260       -0.0002737526       -0.0060381420
O        -0.0031162195       -0.0040960793       -0.0014678557
O         0.0041330017       -0.0057194351       -0.0100157022
O        -0.0030730839        0.0026236438       -0.0228162638
O        -0.0006780063       -0.0122529449       -0.0006478182
O         0.0054748456        0.0033890863       -0.0038241478
O         0.0111320302       -0.0009048956       -0.0082397908
O        -0.0136225929        0.0002548626        0.0038000212
O         0.0059791872        0.0102287792        0.0055597806
O         0.0005395684       -0.0051028257        0.0060293175
O        -0.0072380855       -0.0059243132       -0.0084445602
O        -0.0251120232        0.0023365307        0.0101240547
O        -0.0029391696       -0.0151411254        0.0072344667
O        -0.0033366829        0.0144156725       -0.0042519795
O         0.0067575930       -0.0019472360        0.0010805265
O         0.0034542708       -0.0008742176        0.0056256862
O        -0.0135609625       -0.0011581137        0.0058267716
O         0.0069665422        0.0054482874       -0.0103693958
O        -0.0079922813       -0.0006194731       -0.0071555492
O         0.0042193526       -0.0007536486        0.0009085607
O        -0.0078613172       -0.0078559767       -0.0060974837
O         0.0052647773       -0.0183503932        0.0042041347
O         0.0040085878       -0.0004253982        0.0035729667
O         0.0015369576       -0.0007003448       -0.0039804440
O        -0.0032985458       -0.0135386487        0.0007354347
O         0.0009642796        0.0005430043       -0.0105804853
O        -0.0151006406       -0.0049075648        0.0042312669
O         0.0013481468       -0.0003795440       -0.0015129334
O         0.0028028104        0.0117169778       -0.0057449647
O         0.0095286297       -0.0032048351        0.0013380671
O         0.0116668250        0.0002944938        0.0005845579
O         0.0036339282       -0.0041225810        0.0010662774
O        -0.0015648084        0.0004492967        0.0070791916
O        -0.0083939290       -0.0065063413        0.0066333879
O         0.0081837712        0.0011148477       -0.0001642176
O        -0.0099334892        0.0000646529       -0.0016681891
O        -0.0022757778        0.0053973518        0.0044643573
O         0.0110871803       -0.0194185867        0.0076113058
O         0.0010056364       -0.0009746718        0.0054521235
O        -0.0062452130        0.0016537665        0.0105914775
O         0.0048360584       -0.0042380855       -0.0016165877
O        -0.0073465310       -0.0050162880       -0.0034718255
O         0.0075833276       -0.0002497100       -0.0016422527
O         0.0055087289        0.0060794907        0.0125377556
O         0.0014885826       -0.0328791497        0.0035937437
O         0.0029430825       -0.0004189780        0.0009339855
O        -0.0025615534        0.0077342584       -0.0023015771
O         0.0056502978        0.0022528926        0.0022597677
O        -0.0028951524       -0.0130449879        0.0104588808
O         0.0005022142        0.0042496981       -0.0061220681
O         0.0210118310       -0.0037611354        0.0056371337
O        -0.0121975682       -0.0021642044        0.0031120569
O        -0.0025575202       -0.0107238083        0.0090233631
O        -0.0002858696       -0.0083846201        0.0098971892
O         0.0021580123       -0.0008158193        0.0039352584
O        -0.0064052791       -0.0015360874       -0.0088855800
O         0.0017931514       -0.0048545774       -0.0328005115
O        -0.0000202096       -0.0042019670        0.0027364006
O        -0.0183952022       -0.0007965644       -0.0012255978
O         0.0063965642       -0.0025972999        0.0023341807
O         0.0035989124       -0.0030442181        0.0117303567
O        -0.0005923853       -0.0013811860        0.0048597066
O         0.0036112685        0.0010210336       -0.0020918148
O         0.0083490594        0.0023113837       -0.0063846185
O        -0.0116369467       -0.0021862106       -0.0024901115
O         0.0028728950        0.0047341828       -0.0080063649
O         0.0068842046        0.0042340851        0.0056431238
O        -0.0096206902       -0.0086627334       -0.0103416607
O         0.0037245085        0.0191546922       -0.0038108739
O         0.0082072313        0.0034443649        0.0077613124
O        -0.0015309877        0.0084955135       -0.0100010807
O         0.0004595664        0.0097319838        0.0003678048
O         0.0048215189        0.0003320080       -0.0002984907
O        -0.0080918968       -0.0034017087       -0.0074772868
O        -0.0024374130       -0.0070574662        0.0023908277
O         0.0008648937        0.0016130738        0.0030449936
O        -0.0039949799        0.0095030595       -0.0017962812
O        -0.0026197269       -0.0062740706        0.0044431361
O        -0.0078589573        0.0025346151        0.0051628044
O        -0.0034072781       -0.0053933382        0.0080428312
O        -0.0024927665        0.0053907708        0.0010600733
O         0.0017186682        0.0130065516        0.0032552918
O         0.0048290515        0.0027773981        0.0051278540
O         0.0232798278       -0.0019442509        0.0109901058
O        -0.0020095792        0.0042822690       -0.0010959435
O        -0.0124391741       -0.0019056784       -0.0002764131
O         0.0064817667       -0.0033976446       -0.0113194462
O        -0.0031459806       -0.0024437540        0.0081517528
O        -0.0072656414        0.0097101606        0.0003123388
O         0.0026022656        0.0002842552        0.0060522172
O         0.0069717488       -0.0013468297        0.0018451903
O        -0.0018023827        0.0070196637        0.0016813678
O        -0.0064262618       -0.0107290604        0.0039116854
O         0.0010984170       -0.0238801605       -0.0017573689
O         0.0229146036        0.0020719487        0.0016725880
O        -0.0077630238        0.0053723296       -0.0076799704
O         0.0041451691       -0.0038261420       -0.0069824936
O         0.0022246950       -0.0106090222        0.0015390705
O        -0.0213965257        0.0015443324       -0.0060131837
O        -0.0024795049       -0.0043725858        0.0035877463
     192
 i =        2, E =     -5782.4913826432
Ti        -0.0023135898        0.0035819295        0.0025972825
Ti         0.0012017354       -0.0036950588       -0.0044910058
Ti        -0.0036940099       -0.0014931742       -0.0114259044
Ti         0.0010305115        0.0168574077        0.0045766889
Ti         0.0025184148       -0.0032038197        0.0031013918
Ti        -0.0037339467        0.0061404738       -0.0048398589
Ti        -0.0006116513        0.0042168014       -0.0063294130
Ti         0.0003276655        0.0071527236        0.0062312269
Ti        -0.0050567028       -0.0085294740       -0.0025581929
Ti        -0.0010156795       -0.0015911560       -0.0035681301
Ti        -0.0073958009       -0.0000093664        0.0023062098
Ti         0.0018886109        0.0011094828       -0.0036611406
Ti         0.0046266615       -0.0039904111       -0.0038353564
Ti         0.0029489588        0.0069111042        0.0151111186
Ti        -0.0103390699        0.0079162355        0.0022452289
Ti        -0.0023084269        0.0142659542       -0.0103774792
Ti         0.0004002317        0.0036336637       -0.0107266389
Ti        -0.0017965921        0.0054300869       -0.0054970706
Ti         0.0092858892        0.0047765744        0.0030055979
Ti         0.0010084336       -0.0032133234       -0.0112550422
Ti        -0.0037231278        0.0074284038       -0.0112218511
Ti        -0.0050140673       -0.0096236075       -0.0107596945
Ti         0.0041141280       -0.0014343769        0.0042653203
Ti        -0.0079072775        0.0087065136       -0.0012683949
Ti        -0.0059736882       -0.0022974527        0.0066226295
Ti        -0.0071083539       -0.0024194059        0.0040511344
Ti         0.0011953081        0.0059630308       -0.0018353634
Ti         0.0001880738        0.0092835791        0.0065517440
Ti         0.0061519405        0.0051538477        0.0063863190
Ti        -0.0011516559        0.0167592628       -0.0039107093
Ti         0.0014969844       -0.0003153261        0.0026327588
Ti        -0.0064774951       -0.0019625331        0.0060912508
Ti         0.0120165556       -0.0005910599       -0.0089839281
Ti        -0.0052424401        0.0112316691       -0.0053571434
Ti         0.0073826605       -0.0037666438       -0.0041699313
Ti         0.0147807998       -0.0067491643       -0.0096941809
Ti         0.0013854112        0.0006401370        0.0066749416
Ti        -0.0021278338        0.0002520904        0.0033525314
Ti        -0.0067533095        0.0061456787       -0.0073422313
Ti        -0.0036294698        0.0096327429       -0.0024440500
Ti        -0.0095130466        0.0007489423        0.0027260053
Ti         0.0049444904        0.0075662679        0.0056490421
Ti         0.0101683588       -0.0009881625        0.0032105553
Ti        -0.0033484915        0.0036938548        0.0029334199
Ti        -0.0014507646       -0.0041977599       -0.0115019735
Ti         0.0000577199       -0.0003740064       -0.0024504694
Ti         0.0112135425        0.0026020827       -0.0071165438
Ti         0.0014051636        0.0129380450       -0.0010342363
Ti        -0.0022291752        0.0066568088        0.0159866109
Ti        -0.0075927077        0.0041844185        0.0030029410
Ti        -0.0077521547        0.0044842934        0.0061655541
Ti        -0.0029708464       -0.0055303433       -0.0009872564
Ti         0.0075089001        0.0021048521       -0.0051759775
Ti         0.0057510531       -0.0082508641       -0.0017226815
Ti        -0.0032566914       -0.0033768657        0.0036201982
Ti         0.0067470227        0.0079263316       -0.0045420573
Ti        -0.0076343866        0.0004958110       -0.0032564118
Ti         0.0088098467       -0.0104279121       -0.0001507314
Ti         0.0036095198        0.0056391874        0.0043503385
Ti        -0.0039212939       -0.0036334306        0.0050813932
Ti        -0.0024214914       -0.0022097237        0.0009128838
Ti        -0.0038152260       -0.0095694936        0.0003347409
Ti         0.0048741208        0.0026970842        0.0053566463
Ti        -0.0090382440        0.0065329393        0.0008218268
O        -0.0012480183        0.0117599082       -0.0007642159
O         0.0015373486        0.0011225424        0.0056996843
O         0.0027590488       -0.0033005067        0.0067062805
O         0.0074686673        0.0013122321        0.0005854804
O        -0.0013652697       -0.0035204241       -0.0045137807
O         0.0001512059       -0.0072614623        0.0039429263
O         0.0021172837       -0.0051001183        0.0000160619
O         0.0076156877       -0.0012239167       -0.0018060893
O        -0.0019552805       -0.0054068279       -0.0038865344
O        -0.0022713317       -0.0120837186       -0.0001037502
O        -0.0058017029       -0.0007315664        0.0090228888
O        -0.0040690091       -0.0026191700       -0.0017333421
O        -0.0016896605        0.0008109532        0.0060436620
O        -0.0006546852       -0.0082354590       -0.0025276709
O         0.0052018862        0.0000012962       -0.0003770879
O         0.0012980967       -0.0030052095        0.0018167845
O         0.0036138018       -0.0048028324        0.0003351333
O         0.0046468725       -0.0021138371       -0.0049885642
O        -0.0013635514        0.0048093280        0.0001345000
O         0.0075552199        0.0041392480        0.0076997521
O         0.0001650534        0.0052973270        0.0085023502
O        -0.0025057145       -0.0064244798        0.0061753980
O        -0.0012893677       -0.0041669188       -0.0001474393
O        -0.0000696453        0.0072460735        0.0011935942
O        -0.0039917739       -0.0025140639        0.0047884527
O        -0.0031386711        0.0023283272        0.0071949753
O         0.0066609810       -0.0024345190        0.0002634193
O         0.0019811076       -0.0009954870        0.0000764972
O         0.0008723060        0.0041692226       -0.0075540507
O        -0.0066989488       -0.0004616642       -0.0009833219
O         0.0031286403       -0.0018082207       -0.0075980190
O         0.0013629290        0.0009187431       -0.0054185034
O         0.0010667102       -0.0146167221       -0.0011085458
O         0.0003599756        0.0030528802       -0.0025375217
O         0.0088284294       -0.0000170643       -0.0042078827
O        -0.0006816564       -0.0004838472        0.0018431973
O         0.0015687189       -0.0023679528        0.0023527973
O        -0.0003981056        0.0011399277        0.0049831731
O        -0.0091955031       -0.0005236823        0.0001152723
O        -0.0067464588        0.0002112610        0.0038022304
O        -0.0036526285       -0.0086658201        0.0075693955
O        -0.0037049841       -0.0029814934       -0.0036894315
O         0.0012582156        0.0054672698        0.0009776567
O        -0.0003556569       -0.0146466755        0.0021494249
O        -0.0041898145        0.0023303251       -0.0029895047
O        -0.0016533030       -0.0015495592        0.0001993717
O        -0.0023758270       -0.0009773222       -0.0061062924
O         0.0102959475       -0.0017160466        0.0018831949
O        -0.0039511037       -0.0152059968       -0.0048803786
O         0.0040610968       -0.0045681606       -0.0077075441
O         0.0028895087       -0.0006346406       -0.0054326703
O         0.0021576013       -0.0027755319       -0.0017773406
O         0.0015688224       -0.0158402884       -0.0007606373
O         0.0018225078       -0.0001450880       -0.0041121034
O        -0.0097694267       -0.0025572144        0.0032586649
O        -0.0046714324       -0.0003757802        0.0065590614
O         0.0026654185        0.0039058979        0.0041537637
O        -0.0014893375       -0.0000818251        0.0026795155
O         0.0051711558       -0.0047003549        0.0061698023
O        -0.0067508640       -0.0028561581       -0.0000668195
O         0.0024519497       -0.0027879617       -0.0036636529
O        -0.0048170781        0.0074794489       -0.0043397755
O        -0.0113408333       -0.0056240384        0.0043822288
O        -0.0079947140       -0.0036785002        0.0021876319
O        -0.0037767770        0.0032802382        0.0069209161
O         0.0061474528        0.0039238553       -0.0005967935
O        -0.0087561071        0.0018309836        0.0046344213
O         0.0025350867       -0.0003480386        0.0000553556
O        -0.0001147202       -0.0097489882        0.0032496528
O        -0.0038882097        0.0057159665       -0.0050121218
O         0.0044397684        0.0007913614       -0.0026967180
O        -0.0082354010       -0.0004281670        0.0037122780
O         0.0047182706       -0.0045263156        0.0015005894
O         0.0039412312        0.0033411658       -0.0033075714
O        -0.0061861226        0.0030679040       -0.0001466472
O         0.0009935442        0.0032048575        0.0048172534
O        -0.0028347988       -0.0089674429        0.0065163661
O        -0.0001823302       -0.0026382463        0.0028779900
O         0.0094045906       -0.0031951631        0.0002751409
O        -0.0079131322       -0.0017579311       -0.0014367799
O         0.0022783266       -0.0004190033        0.0029793400
O        -0.0017004285       -0.0103185039        0.0038780243
O        -0.0040684489        0.0026112880        0.0059304603
O        -0.0043262696        0.0003848469        0.0005181999
O         0.0014881559       -0.0004291327       -0.0192314080
O         0.0018504438       -0.0011404431        0.0033454468
O         0.0037049497        0.0029010256       -0.0027812461
O         0.0108633301        0.0000759673        0.0041613827
O        -0.0007720896        0.0054434290       -0.0052153629
O         0.0006072588        0.0009685068        0.0048875483
O        -0.0009051059        0.0046306662        0.0007925577
O         0.0004632864       -0.0113510857        0.0020816268
O         0.0021386597       -0.0030196434        0.0019543944
O         0.0072355814        0.0039521729       -0.0010206946
O         0.0027168197        0.0025824728        0.0014916636
O         0.0028564502       -0.0032556585       -0.0059152477
O        -0.0005803402        0.0107882575       -0.0053048437
O         0.0039709682       -0.0000603567        0.0017695680
O         0.0076479907        0.0012847683       -0.0073663158
O         0.0007132585        0.0006751895       -0.0022463432
O         0.0008422933       -0.0058058228       -0.0025897318
O        -0.0000225518       -0.0063169116       -0.0039482339
O         0.0090084795       -0.0029010086        0.0057044735
O         0.0018260179       -0.0031645908        0.0005665616
O        -0.0005983551       -0.0034506477       -0.0008251656
O        -0.0028309224       -0.0074504485       -0.0012809664
O        -0.0029273092        0.0053511264        0.0036564258
O        -0.0039137991       -0.0008640682        0.0023183250
O         0.0037118596       -0.0008405593        0.0035613732
O        -0.0002117200       -0.0007892607       -0.0015381583
O         0.0002275780        0.0013867275       -0.0012717517
O         0.0137587928       -0.0043969421       -0.0036484023
O        -0.0001765419        0.0031651484        0.0042859439
O        -0.0034768441       -0.0022964733        0.0012786490
O         0.0034191393       -0.0000475512       -0.0002564057
O        -0.0062313773        0.0040503096        0.0065612530
O        -0.0010261564        0.0064395672        0.0018128277
O        -0.0041942406        0.0035620833       -0.0021850652
O         0.0028827428        0.0007825112       -0.0069686178
O        -0.0037792109        0.0102288160        0.0007369581
O        -0.0038882300        0.0028968587        0.0006429079
O        -0.0003064610       -0.0089123919       -0.0063064944
O         0.0102670066        0.0038340365        0.0013505991
O        -0.0012823588        0.0017955659        0.0015500123
O         0.0036730645        0.0000981013       -0.0034343900
O         0.0001812342       -0.0005143658        0.0011308823
O        -0.0081251910        0.0002106119       -0.0027573812
O         0.0001126537       -0.0003320261        0.0032673076
     192
 i =        3, E =     -5782.5284510150
Ti        -0.0022840819        0.0009441982        0.0025000903
Ti         0.0036075296       -0.0015291624       -0.0023821580
Ti        -0.0031588451       -0.0042545649       -0.0065254308
Ti         0.0003838520        0.0115839091        0.0009011787
Ti         0.0035766410        0.0014174515        0.0000077904
Ti        -0.0050130707        0.0039373538       -0.0038129112
Ti        -0.0032747408        0.0007906706       -0.0022116604
Ti         0.0001442066        0.0009481918        0.0035225819
Ti        -0.0042297565       -0.0029702141       -0.0014408566
Ti         0.0014989764       -0.0036594101       -0.0023955016
Ti        -0.0065383446       -0.0019062094       -0.0002557726
Ti         0.0018836536        0.0004187921       -0.0005758999
Ti         0.0057140352       -0.0057813064       -0.0035476854
Ti         0.0008050835        0.0063889988        0.0084693058
Ti        -0.0044555928        0.0013843290       -0.0017455141
Ti        -0.0014205128        0.0114123874       -0.0042869454
Ti        -0.0003152110        0.0016769389       -0.0043849426
Ti         0.0012869141        0.0054691538        0.0008004618
Ti         0.0084479230        0.0072161487       -0.0011610939
Ti         0.0024979133       -0.0050509137       -0.0057353413
Ti         0.0018070642       -0.0000790107       -0.0066170265
Ti        -0.0044143818       -0.0074035439       -0.0029576484
Ti         0.0044153345        0.0024784367        0.0053280613
Ti        -0.0083253063        0.0068871703       -0.0022608701
Ti        -0.0042011366       -0.0009778508        0.0047835934
Ti        -0.0076510721        0.0001313180       -0.0002564149
Ti         0.0044912594        0.0033246111       -0.0011250073
Ti        -0.0012330994        0.0045463178        0.0007552824
Ti         0.0020323206        0.0069809007        0.0029977579
Ti         0.0026174326        0.0084499650        0.0044506443
Ti        -0.0012098360        0.0026006197        0.0027057014
Ti        -0.0051616668       -0.0001172486        0.0027972665
Ti         0.0080682190        0.0006869129       -0.0041083335
Ti        -0.0046123612        0.0035424831       -0.0028651203
Ti         0.0034934425       -0.0017264054       -0.0063636209
Ti         0.0144868604       -0.0058820989       -0.0058629118
Ti        -0.0001664218       -0.0000386460        0.0027992589
Ti        -0.0033840316       -0.0001120037        0.0049280687
Ti        -0.0055151515        0.0040799321       -0.0038764203
Ti        -0.0023400274        0.0104525796       -0.0021120943
Ti        -0.0080248166        0.0020565995        0.0053911861
Ti         0.0035197357        0.0065556234        0.0005349178
Ti         0.0054622023        0.0018166871       -0.0048904952
Ti        -0.0011862586        0.0054493759        0.0014975309
Ti         0.0005288055       -0.0040262801       -0.0059322541
Ti        -0.0043844304       -0.0017955502       -0.0018700043
Ti         0.0081002477        0.0024294973       -0.0046686102
Ti         0.0029166033        0.0077104937       -0.0008387440
Ti        -0.0015207807        0.0072797601        0.0062308646
Ti        -0.0024238527        0.0029872183       -0.0005787868
Ti        -0.0039267337        0.0067120302        0.0037184878
Ti        -0.0053649718       -0.0048803985        0.0020814343
Ti         0.0024110660        0.0012124162       -0.0021268932
Ti         0.0019446326       -0.0034874475       -0.0012275861
Ti        -0.0002644445       -0.0028827499        0.0029616633
Ti         0.0024995501        0.0045073926       -0.0011666154
Ti        -0.0023909250        0.0011440629       -0.0015942390
Ti         0.0062136987       -0.0118642589        0.0001661980
Ti         0.0021581611        0.0050533173        0.0041263540
Ti        -0.0041177177       -0.0017785389        0.0024600898
Ti        -0.0035904964        0.0012630968        0.0041392741
Ti        -0.0022543545       -0.0096118313        0.0011412501
Ti         0.0036887912        0.0009224918        0.0022001105
Ti        -0.0045939229        0.0050158322       -0.0009295059
O        -0.0007824843        0.0029060653        0.0023084727
O         0.0029594588       -0.0026493347        0.0044197086
O        -0.0045444796        0.0000563003        0.0038687043
O         0.0018761187        0.0020085352        0.0013750657
O         0.0020713515        0.0002410627       -0.0028108349
O         0.0010845631       -0.0037432459        0.0027077310
O         0.0028828005       -0.0018617634        0.0034959038
O         0.0047571998        0.0006224630       -0.0006436983
O         0.0029189997       -0.0056292529       -0.0012063336
O        -0.0028399214       -0.0041347375       -0.0009429459
O         0.0016942037        0.0001321216        0.0030329876
O         0.0030862794       -0.0010262463       -0.0009466112
O        -0.0040073611       -0.0012473632        0.0028731679
O        -0.0019218627       -0.0025242080       -0.0027436197
O         0.0035552167       -0.0045280481        0.0009448314
O         0.0034123747       -0.0011075501        0.0013910321
O         0.0007274193        0.0015325476       -0.0006797677
O         0.0037327632       -0.0008355169       -0.0023863046
O        -0.0029501122        0.0008892829        0.0009396421
O         0.0043431464        0.0036006586        0.0028755958
O         0.0013110187        0.0011194091        0.0033494847
O         0.0036512873       -0.0021339867        0.0047920761