     192
 i =        1, E =     -5782.3990381607
Ti        -0.0630959696        0.0932799691        0.0658271788
Ti         1.8668382461        1.9237995785        4.8992973789
Ti         0.0470358339        2.0301731780        2.5307967568
Ti         1.8642811586       -0.0467595626        7.1725354462
Ti        -0.0339084673        3.8293971770       -0.0533992466
Ti         1.9499015164       13.1921958137        4.8337968054
Ti        11.2880783363        1.9808941990        2.4509384072
Ti         5.6074322399       -0.0902061385        7.2230661631
Ti         1.9054856334        3.8180760908        7.2357068076
Ti         0.0248739521       13.3474301350        2.4743159568
Ti         5.6780926280        1.8361512680        4.8275297100
Ti        11.3030750670        0.1155789962       -0.0450593033
Ti         3.6767772207        0.0971138038        0.0486137451
Ti        13.1229817706        1.7698886555        4.7043894572
Ti        13.2669248848       -0.0450531528        7.1547735023
Ti         3.7506621500        1.8026291338        2.5221580151
Ti         1.9717193826        5.6387509332        4.8508900418
Ti         0.0011212235       11.5685055482        0.0042447658
Ti        -0.0225357832        5.7228026153        2.4871713339
Ti         1.8983370013       11.3177810487        7.3611600628
Ti         0.0707233733        7.5017560397        0.0526754401
Ti         2.0395032123        9.5182358743        4.9044218936
Ti         7.4987476883        1.9571648110        2.3508932789
Ti         9.4693761215       -0.1313557949        7.2261559889
Ti         1.9466450051        7.5790649131        7.1610136633
Ti         0.1327172797        9.5810914439        2.4768100513
Ti         9.3284219774        1.8086319290        4.7679877550
Ti         7.4643263733       -0.0615470722       -0.0795950353
Ti         3.7292846840        3.7832881360       -0.0065842846
Ti        13.2374571739       13.1247384752        4.7426285830
Ti        11.3745748223        5.7264094529        2.3766571614
Ti         5.6793207813       11.3255340664        7.1523666354
Ti        13.1723437113        3.6800290825        7.2405489733
Ti         3.7725169446       13.1622515135        2.4440604556
Ti         5.6799737378        5.7198809318        4.8435214318
Ti        11.2222706998       11.3900186577        0.1082373216
Ti        11.2850559175       13.3338655053        2.3542288658
Ti         5.6591966627        3.7268665121        7.1289206181
Ti         3.8834578126       11.4219028565        0.0419003413
Ti        13.2878839344        5.5837615689        4.9031801418
Ti         5.7977805221       13.2087641519        4.8102301878
Ti        11.2678299392        3.7901120845       -0.0769172424
Ti        13.0948635120       11.3813768763        7.2645927798
Ti         3.7914878558        5.6088400511        2.3937872377
Ti         3.7990115581        7.5570768973        0.0453972561
Ti        13.3035660132        9.4211122897        4.8374061390
Ti         7.5195957100        5.6773400891        2.3893758287
Ti         9.4264296719       11.1419839542        7.1728701628
Ti        13.3046751715        7.5415689503        7.2319438801
Ti         3.8830915311        9.4426871760        2.3387018679
Ti         9.5212538528        5.5610305373        4.7065573188
Ti         7.5323584922       11.3432100411        0.0705276153
Ti        11.4048405561        9.4481728573        2.4127341486
Ti         5.6602500389        7.6066570571        7.2011051144
Ti         5.7792691951        9.4229844988        4.7422394760
Ti        11.3214436847        7.5744713623        0.0060699046
Ti         9.4277299747        3.6451780437        7.1663805088
Ti         7.5400467572       13.3083362728        2.4062131562
Ti         7.4634388386        3.7981147726       -0.0640962736
Ti         9.5123778164       13.2422410275        4.7814743706
Ti         7.5984571269        7.5333783826       -0.0563743094
Ti         9.5308728192        9.3933040037        4.7597595116
Ti         7.6382336525        9.4168725014        2.3230609659
Ti         9.5156459063        7.3579612190        7.1444467674
O         0.0554464420        0.0828412897        2.0918593848
O         1.6662614128        1.9359049042        6.7382693481
O        -0.0703666577        2.0004700082        4.4146990089
O         1.7984016787        0.1487899384        9.2363062607
O         1.8076834008       -0.0172470861        5.2603611717
O        -0.1514397818        2.0052944819        0.4923660354
O         1.8669190607        2.1774730450        2.8326511013
O        -0.0702520054       -0.0502485318        7.6229960908
O        -0.0294410494        3.9092443393        2.0823410762
O         1.9950266478       13.2698963923        6.8241936671
O        11.2872801752        1.8273296759        4.3151637507
O         5.6317736215       -0.0211454283        9.2669382779
O         2.1126421115        3.7578234613        5.1790374471
O         0.0536770753       13.3693749278        0.4369475174
O         5.6317262151        1.8515269065        2.8366634923
O        11.2854353739        0.0677971281        7.5626752114
O         3.7117763089        0.1187482837        7.6904155346
O        13.1896439670        1.8722313514        2.8307188527
O        13.1744068118       -0.1069758230        9.2173549039
O         3.7109605670        1.6481440169        4.3780158364
O         1.9082330162        5.6231478706        6.7419089332
O         0.0594498287       11.4551243187        1.9193988159
O         0.0844231544        5.7214822968        0.4658688375
O         1.9152057301       11.3169762223        5.2352832687
O         0.1225292252        7.7223662727        1.9527920450
O         2.1607501445        9.4636845074        6.7784071296
O         7.4570145019        1.8627877569        4.3602793938
O         9.4160288029        0.0368736310        9.2005443193
O         1.8223058735        7.5679620718        5.2745355966
O         0.1122003018        9.5673282075        0.2724633352
O         9.3699500743        2.0415087212        2.8405344956
O         7.4836559664       -0.1605926321        7.6995344028
O         3.7495194614        0.0573426121        2.0372558943
O        13.2183774774        1.8491469076        6.7826248966
O         0.0050498442        5.6054505592        4.4886562160
O         1.9281102328       11.3545226517        9.2663336757
O        13.1719285271       -0.0303406792        5.1318801300
O         3.7069619666        1.9543456261        0.4339358870
O         1.9459175931        5.8038799607        2.9114735468
O         0.0967814346       11.4256004999        7.5676312754
O        11.3475794261        2.0061114726        0.2864333837
O         5.8158567092       -0.0858990131        5.2756810559
O         5.5648547537        1.8281160948        6.7848252127
O        11.2696535726        0.1388959228        1.8949481693
O         1.9064705922        3.8350825759        9.2048808783
O        -0.0191246359       13.1541926998        4.4555012902
O         0.0224809454        3.8015254451        7.6771675605
O         1.8857944469       13.2361916851        2.8668569951
O         3.9671339731        3.8373533812        2.0689408734
O        13.1055886315       13.2705381321        6.7318962254
O        11.3722791752        5.6625085425        4.3860568259
O         5.6903459538       11.4713756999        9.2261674860
O        13.1779031699        3.8030505093        5.2194920904
O         3.6387584177       13.3094836825        0.5076721117
O         5.7387819039        5.9132010140        2.7387528061
O        11.3037674140       11.3381619722        7.6544529805
O        11.2511146436       13.2705198810        0.4097201310
O         5.4934764184        3.7199379528        5.1850589949
O         3.7884761223       11.3694689402        7.6798870142
O        13.2778999063        5.9251863703        2.8738830777
O         5.5165600603       13.1996321389        6.7818796579
O        11.5434905318        3.8319189070        1.9192678889
O        13.2346476004       11.4076092594        9.2095762757
O         3.8641595572        5.7141389753        4.4068393966
O         5.7625017875        5.6338794942        6.7343135727
O        11.1222410040       11.4591216997        2.0015385175
O        13.2084848005        3.9102896130        9.1361297373
O         3.7979822609       13.2148774888        4.3899935173
O        11.3583217017        5.7370858572        0.4109264392
O         5.7872144375       11.3033595276        5.2362936557
O         3.7454396222        3.7229844593        7.6484349415
O        13.2124347364       13.2146150249        2.7152617072
O        13.0521976267       11.4089750732        5.1531679122
O         3.7136664385        5.6750141777        0.4290536022
O         5.6956556807       13.1674283339        2.8681578056
O        11.2945795340        3.5630643337        7.5571889045
O         3.9634031224       11.4060652048        1.9658595416
O        13.2138686429        5.6414919758        6.9000830366
O        11.2881980499       13.3500604950        4.3226040172
O         5.6639387351        3.8116709182        9.1416503936
O         3.7863345398        7.6349990433        1.9262840102
O        13.3106846243        9.5852761635        6.7526725821
O         7.5731360832        5.5278174888        4.3207248268
O         9.4245527485       11.3238551250        9.2236068125
O        13.2638061264        7.5873853269        5.4202867113
O         3.8108869125        9.5219653836        0.3601784811
O         9.5543681245        5.5802791571        2.7893967970
O         7.5228135891       11.3476871674        7.5744830587
O        11.3454680961        9.4923960215        0.4084131654
O         5.7310996242        7.5682479120        5.1629762192
O         5.5474064068        9.4184012864        6.7579915525
O        11.2246746593        7.6054649563        2.0188722326
O         9.4348389344        3.9488948940        9.1479117001
O         7.5915803221       13.0443438694        4.4522239608
O         7.5042839634        3.6456795434        7.5500255453
O         9.4299219465       13.4686040102        2.8562917174
O         7.4431012227       -0.0377203483        2.0371882499
O         9.2138542953        1.8078186448        6.7277378614
O         0.0795756980        9.3695955728        4.4352659673
O         1.9270218729        7.5772048372        9.2018118478
O         9.3118009597       -0.0325952041        5.1943446543
O         7.6349298570        1.9046201130        0.4391737371
O         1.9642111194        9.6989482435        2.7723589284
O         0.0421878601        7.5684539702        7.6170986452
O         7.5242216702        3.7974859707        1.9489542912
O         9.5034642615       13.2082164243        6.7433102496
O        11.4421836840        9.2294024844        4.3777836708
O         5.6686711183        7.6978397249        9.1259010495
O         9.4811506927        3.6886026327        5.1829199762
O         7.5679351386       13.2196593055        0.4184308083
O         5.7402206591        9.4004965761        2.7119824398
O        11.3033177643        7.6444378675        7.5955883975
O         3.7906040663        7.3645827637        7.6004965745
O        13.3244142740        9.6160718505        2.8079724193
O        13.2649334873        7.6759321671        9.3264047454
O         3.8516113459        9.4259745235        4.2975358348
O         9.6096432311        5.5295650144        6.7547031464
O         7.6430119737       11.3272589646        1.9608720949
O         7.3432610077        5.6954023813        0.3704445355
O         9.5559444887       11.2282734148        5.1969975404
O         7.8605716794        7.5898658927        1.9243448997
O         9.4489006408        9.4162157227        6.8102016005
O         7.5600080918        9.3776247386        4.3258950865
O         9.4711716588        7.4391022516        9.2193272896
O         9.3547195645        7.4827061363        5.2463660894
O         7.5174328900        9.4670758769        0.3627651819
O         9.5712063983        9.5098799649        2.8708878865
O         7.5967753715        7.5408771368        7.5880648331
     192
 i =        2, E =     -5782.4913826432
Ti        -0.0592722705        0.1160239303        0.0326177818
Ti         1.8564451824        1.9284035599        4.8825709307
Ti         0.0405872880        2.0109487652        2.4895131095
Ti         1.8457324442       -0.0660198272        7.1913336213
Ti        -0.0572199801        3.8294600451       -0.0340645231
Ti         1.9528391905       13.2066118461        4.8396960610
Ti        11.3007952286        1.9582732145        2.4338796290
Ti         5.6005297670       -0.0750739895        7.2139598635
Ti         1.9052624540        3.8053664612        7.2470228940
Ti         0.0083774532       13.3337660630        2.4602652784
Ti         5.6810951305        1.8517243094        4.8126739514
Ti        11.2922574990        0.0932770527       -0.0330978105
Ti         3.6600743945        0.0816730013        0.0342619409
Ti        13.1638630495        1.7918690870        4.7349252740
Ti        13.2653607536       -0.0404201672        7.1775236150
Ti         3.7639042888        1.8320026417        2.5082048272
Ti         1.9635947031        5.6576659348        4.8327029785
Ti        -0.0001023548       11.5584402651       -0.0034305944
Ti        -0.0156462834        5.7104647711        2.4790581201
Ti         1.8788779356       11.3445273857        7.3313055777
Ti         0.0350851827        7.4938646313        0.0319024043
Ti         2.0234364610        9.5196921780        4.8643625945
Ti         7.5007445059        1.9552073745        2.3325427220
Ti         9.4830489986       -0.1121602877        7.2268483668
Ti         1.9385502312        7.5718522235        7.1750536884
Ti         0.1048196988        9.5523862236        2.4876741380
Ti         9.3506202700        1.8213347345        4.7911594119
Ti         7.4669094187       -0.0336975017       -0.0650828260
Ti         3.7395359807        3.7711056747        0.0030135954
Ti        13.2321809247       13.1165277878        4.7780649245
Ti        11.3602987821        5.7142119648        2.3858255148
Ti         5.6737189411       11.3189833554        7.1738006898
Ti        13.1642249782        3.7050031200        7.2312833164
Ti         3.7819548252       13.1931938189        2.4440794486
Ti         5.6984716673        5.6985300166        4.8353698314
Ti        11.2238974369       11.3869444047        0.0819850826
Ti        11.3051171036       13.3131386893        2.3469584916
Ti         5.6661212171        3.7259459189        7.1412508787
Ti         3.8673262078       11.3958524873        0.0217514666
Ti        13.2761244798        5.5923684218        4.8723274871
Ti         5.7719462690       13.2041497024        4.8059795408
Ti        11.2617700982        3.7979004266       -0.0442302607
Ti        13.1238314628       11.3531463899        7.2622698479
Ti         3.8027578884        5.6313211124        2.3932207309
Ti         3.7910823498        7.5814832153        0.0321264749
Ti        13.2856815072        9.4301810409        4.8404124543
Ti         7.4932951980        5.6844812583        2.4119613091
Ti         9.4104224881       11.1773817552        7.1697500274
Ti        13.2974806626        7.5276340168        7.1964485050
Ti         3.8581395508        9.4341364402        2.3518178606
Ti         9.5193220151        5.5731227572        4.7256564935
Ti         7.5654905175       11.3537228144        0.0433126471
Ti        11.3955694440        9.4536247461        2.4346186614
Ti         5.6641241295        7.5821688977        7.2242761058
Ti         5.7699589601        9.4204646924        4.7578684018
Ti        11.3297204718        7.5858947671       -0.0002687412
Ti         9.4364309910        3.6636917870        7.1746638020
Ti         7.5408020113       13.3252226699        2.3894295480
Ti         7.4745966519        3.7977683660       -0.0583564904
Ti         9.4974934259       13.2363876355        4.7877866721
Ti         7.6105737566        7.5328513828       -0.0630470136
Ti         9.5278918444        9.4211226214        4.7777915112
Ti         7.6132384298        9.4154821189        2.3302785902
Ti         9.5180258866        7.3890693402        7.1526282444
O         0.0563957654        0.0644591559        2.0283831568
O         1.7581250800        1.9170143343        6.7669445552
O        -0.0221002872        1.9782245115        4.3931437727
O         1.7970378883        0.1249652063        9.2107567618
O         1.8148867949       -0.0108711018        5.2661098340
O        -0.1174869698        2.0077075486        0.4516481258
O         1.8683905736        2.0922154796        2.8102076290
O        -0.0521318801       -0.0545483241        7.6401276998
O        -0.0613104259        3.8913412441        2.0706316772
O         1.9870551723       13.2440868102        6.8350132759
O        11.2941013870        1.8437182098        4.3427725658
O         5.6038764392        0.0178647191        9.2498857758
O         2.0657319427        3.7793906935        5.1929253413
O         0.0477854942       13.3719864505        0.4322963250
O         5.6341669399        1.9196069270        2.8204003542
O        11.3098537086        0.0765163519        7.5707579586
O         3.7019104928        0.0850183278        7.6675310077
O        13.1903584978        1.8968464251        2.8369821295
O        13.1860033927       -0.0296153644        9.1882899803
O         3.7214345368        1.6771825808        4.3983742592
O         1.8712416202        5.6373124613        6.7706304278
O         0.0232943498       11.4279140285        1.9164469604
O         0.0375444202        5.7097519885        0.4590616480
O         1.8937209505       11.3353154413        5.2408750032
O         0.1261952611        7.6970181606        1.9411216519
O         2.0541007048        9.4674298078        6.7941877316
O         7.4972357881        1.9140198839        4.3808048813
O         9.4183110377        0.0155147295        9.1734268852
O         1.8941435677        7.5665305499        5.2680138400
O         0.0847081199        9.5416785053        0.2710316787
O         9.3822844867        1.9828560228        2.8195487386
O         7.4779849360       -0.1322035099        7.6707239996
O         3.7347580459        0.0629205937        2.0328020312
O        13.2723292272        1.8663245547        6.7898335136
O         0.0125231748        5.5948734227        4.4644552405
O         1.8916015202       11.3514841718        9.2481535781
O        13.2300126465       -0.0050858279        5.1704263865
O         3.7141112768        1.9343110141        0.4426104548
O         1.9422515115        5.7513971106        2.8679088679
O         0.0463556830       11.4321822978        7.5960646576
O        11.3230229239        1.9829300352        0.3122793248
O         5.7881898106       -0.0568353637        5.2547031798
O         5.6317943909        1.8253913213        6.7811669462
O        11.2984947802        0.1287979281        1.9192215491
O         1.8853126826        3.8176198338        9.2362416438
O        -0.0105276114       13.2067172102        4.4139437828
O         0.0014495911        3.7828727308        7.6760074518
O         1.8816838210       13.2384272526        2.8630408094
O         3.9007451064        3.8477498823        2.0584933857
O        13.1564365570       13.2349911591        6.7829244437
O        11.3676949696        5.6664559892        4.4049023535
O         5.6975481372       11.4567481886        9.2266722743
O        13.1570248756        3.8041373831        5.2210344908
O         3.6488639512       13.2943025881        0.4747887534
O         5.7100829972        5.8738594486        2.7646219828
O        11.3194398187       11.3346810279        7.6143258956
O        11.2740132726       13.2734174663        0.3873476185
O         5.5852443748        3.7220270112        5.1862039561
O         3.7909507942       11.3759928280        7.6651019763
O        13.2872157422        5.9034695544        2.8668828470
O         5.5207729400       13.2042697128        6.8094804681
O        11.4784097383        3.8067304410        1.9618212945
O        13.2547889317       11.4307968183        9.1999264594
O         3.8551944763        5.7219823675        4.3996937309
O         5.7527599563        5.6324587929        6.7362217886
O        11.2144009719       11.4101916203        2.0075924081
O        13.2064117652        3.8911184518        9.1486661550
O         3.7837025453       13.2321452601        4.4162929462
O        11.4033406925        5.7426274499        0.4070075346
O         5.7410836178       11.2896483595        5.2470641581
O         3.7568566954        3.7236662737        7.6566602547
O        13.2313011335       13.2672614187        2.7748219866
O        13.0863088803       11.3466323876        5.1589588015
O         3.7412819033        5.6806535801        0.4230415494
O         5.6936710412       13.2323290088        2.8535887386
O        11.3025674198        3.5805761261        7.5782449510
O         3.9229976200       11.3994427912        1.9867894936
O        13.2212491838        5.6546854247        6.8378522557
O        11.3058883627       13.3102970000        4.3417837054
O         5.6583733807        3.7838331985        9.1600147578
O         3.7554662437        7.6103271839        1.9425967259
O        13.3109374617        9.5428619360        6.7825179293
O         7.5841586609        5.5191022638        4.3329020810
O         9.4332526619       11.3105566182        9.1744863540
O        13.2973886432        7.5752127554        5.3415207942
O         3.7969863767        9.5087021666        0.3784319165
O         9.5058976061        5.5783604779        2.7954530476
O         7.5188389098       11.3225128566        7.5640753061
O        11.3614717401        9.4840030290        0.4680217134
O         5.7457139461        7.5507446959        5.1783816114
O         5.5982484449        9.4040575393        6.7712302363
O        11.2991540412        7.6167180909        2.0019125018
O         9.4158272992        3.9304602897        9.1504881877
O         7.5734521556       13.0864613214        4.4084969147
O         7.5209576602        3.6933681944        7.5731617968
O         9.4261785278       13.3773610233        2.8220904429
O         7.4806381696        0.0034724158        2.0350921005
O         9.2810797553        1.8229949363        6.7609485258
O         0.0530284829        9.4351281494        4.4197203076
O         1.9074759309        7.6625132063        9.2135944511
O         9.3544491236       -0.0233867217        5.2037070570
O         7.5636998621        1.9137373917        0.4088826866
O         1.9362081742        9.6353662997        2.7663248223
O         0.0325544022        7.5856096934        7.6156455372
O         7.4792206671        3.8186477177        1.9475197184
O         9.4849845883       13.2155896292        6.7616226222
O        11.4124191479        9.2474259430        4.4034071920
O         5.6723178638        7.6516150588        9.1561378845
O         9.4562781740        3.7122853752        5.1942073369
O         7.5868312020       13.2533530598        0.4286246240
O         5.7304564985        9.4108790003        2.7502587849
O        11.3382027869        7.6265591394        7.6359873407
O         3.7830802798        7.3936080325        7.5973365266
O        13.2910952246        9.6021755591        2.8100420324
O        13.2659010560        7.6610930549        9.2313300745
O         3.8431119973        9.3934631213        4.3205658321
O         9.5411735113        5.5644633412        6.7650391439
O         7.6653387896       11.3301480387        1.9567079554
O         7.4133307404        5.6904947123        0.4019240907
O         9.5569883545       11.2542070061        5.2073041071
O         7.7919931741        7.5595949914        1.9440471441
O         9.4643297889        9.4096612450        6.8366762669
O         7.5814044377        9.3887080108        4.3442539162
O         9.4705547010        7.4970678128        9.1822467784
O         9.4015954612        7.4928574161        5.2310247120
O         7.5317033954        9.4540916189        0.3654354422
O         9.5275926754        9.5091596680        2.8644916032
O         7.5889341914        7.5160371201        7.5934915421
     192
 i =        3, E =     -5782.5284510150
Ti        -0.0486490255        0.1164469395        0.0176845712
Ti         1.8639437890        1.9210681641        4.8711528401
Ti         0.0363765669        2.0065127274        2.4712239260
Ti         1.8508291995       -0.0541301649        7.2007661397
Ti        -0.0666902025        3.8185067651       -0.0302716715
Ti         1.9500022878       13.2227499121        4.8286358382
Ti        11.3235118531        1.9448557528        2.4326063973
Ti         5.6056893572       -0.0522719288        7.2111835597
Ti         1.9011220194        3.7948981947        7.2472637641
Ti         0.0050358321       13.3341464109        2.4460487078
Ti         5.6865984475        1.8598044994        4.8136813937
Ti        11.2855156372        0.0821037652       -0.0277054008
Ti         3.6696329034        0.0799197426        0.0272430471
Ti        13.1817261203        1.8130646310        4.7657229302
Ti        13.2499645736       -0.0291883681        7.1965913314
Ti         3.7723087911        1.8406761022        2.4844122976
Ti         1.9586929418        5.6669973741        4.8266704524
Ti        -0.0135096540       11.5466347959       -0.0120285248
Ti        -0.0094521542        5.7007429456        2.4714646921
Ti         1.8648899563       11.3525005110        7.2986028888
Ti         0.0156863545        7.5025482709        0.0086543538
Ti         2.0034786250        9.5191192313        4.8472669476
Ti         7.5159470534        1.9469202752        2.3336427354
Ti         9.4709858038       -0.0934482017        7.2181217000
Ti         1.9261766206        7.5674115651        7.1769178805
Ti         0.0849652312        9.5302951588        2.4879245180
Ti         9.3657797627        1.8369623726        4.7875700265
Ti         7.4666805105       -0.0096933027       -0.0563947504
Ti         3.7449497951        3.7757880687        0.0120325549
Ti        13.2346012780       13.1406060970        4.7823189601
Ti        11.3629301389        5.7079717949        2.3923439120
Ti         5.6688963387       11.3189205671        7.1897836645
Ti        13.1765092282        3.7206550263        7.2190921069
Ti         3.7796294790       13.2173479288        2.4228618862
Ti         5.7000750684        5.6812442665        4.8401308168
Ti        11.2398675327       11.3879007041        0.0556706986
Ti        11.3232737626       13.2977954604        2.3667050720
Ti         5.6654570489        3.7323500917        7.1578891912
Ti         3.8458795346       11.3895939391        0.0195163956
Ti        13.2711230042        5.5962466352        4.8505776125
Ti         5.7483184129       13.2036908263        4.7971601975
Ti        11.2679362266        3.7964211852       -0.0209350663
Ti        13.1624687463       11.3303288436        7.2721771542
Ti         3.7940306757        5.6312823566        2.3912060502
Ti         3.7787919439        7.5935560622        0.0154448864
Ti        13.2822563994        9.4374306053        4.8393268145
Ti         7.4988586932        5.6905535364        2.4066871069
Ti         9.4174265704       11.2082299538        7.1640557067
Ti        13.2963953900        7.5235111326        7.1830811816
Ti         3.8387467327        9.4327345065        2.3765655949
Ti         9.5017137657        5.5848760796        4.7434051405
Ti         7.5712508773       11.3480759474        0.0266508504
Ti        11.4023232323        9.4551010805        2.4261086362
Ti         5.6717879144        7.5617939187        7.2350384955
Ti         5.7583652381        9.4150128833        4.7762908389
Ti        11.3513061768        7.5908107975       -0.0137263983
Ti         9.4330678288        3.6859744901        7.1833644843
Ti         7.5474868114       13.3307455177        2.3801013895
Ti         7.4822575965        3.8047760764       -0.0489729019
Ti         9.4896458344       13.2303459768        4.7895656072
Ti         7.6114850454        7.5353234817       -0.0616839144
Ti         9.5185713450        9.4295929586        4.7750979273
Ti         7.6084239558        9.4334857419        2.3496078811
Ti         9.5115822016        7.4297224642        7.1628100232
O         0.0458579867        0.0758748204        2.0010417886
O         1.8015496321        1.9142766049        6.7797960407
O         0.0055525736        1.9499954947        4.3962851255
O         1.8153756954        0.1241446832        9.2064694427
O         1.8076727633       -0.0136572676        5.2637107268
O        -0.1083633306        1.9925128701        0.4411466337
O         1.8710713937        2.0277517621        2.7987535542
O        -0.0386517724       -0.0616198834        7.6324649856
O        -0.0893978160        3.8767111320        2.0484052829
O         1.9635156340       13.2319684707        6.8353088136
O        11.2925782263        1.8519774715        4.3714945429
O         5.5908751431        0.0145932860        9.2368520156
O         2.0350623975        3.7847781715        5.2104724939
O         0.0389366119       13.3568630527        0.4220547894
O         5.6449121624        1.9522421869        2.8154264967
O        11.3066911583        0.0593452334        7.5765654912
O         3.7125536957        0.0404675206        7.6621115429
O        13.2039730745        1.8908242444        2.8467630646
O        13.1917022073        0.0316634191        9.1799999400
O         3.7482440322        1.7243872355        4.4044540778
O         1.8576153383        5.6503129117        6.7980992542
O        -0.0160313970       11.4082692758        1.9233159327