 DBCSR| CPU Multiplication driver                                           XSMM (U)
 DBCSR| Multrec recursion limit                                              512 (U)
 DBCSR| Multiplication stack size                                           1000 (D)
 DBCSR| Maximum elements for images                                    UNLIMITED (U)
 DBCSR| Multiplicative factor virtual images                                   1 (U)
 DBCSR| Use multiplication densification                                       T (D)
 DBCSR| Multiplication size stacks                                             3 (U)
 DBCSR| Use memory pool for CPU allocation                                     F (U)
 DBCSR| Number of 3D layers                                               SINGLE (U)
 DBCSR| Use MPI memory allocation                                              F (U)
 DBCSR| Use RMA algorithm                                                      F (U)
 DBCSR| Use Communication thread                                               T (U)
 DBCSR| Communication thread load                                             87 (D)
 DBCSR| MPI: My process id                                                     0
 DBCSR| MPI: Number of processes                                             128
 DBCSR| OMP: Current number of threads                                         1
 DBCSR| OMP: Max number of threads                                             1
 DBCSR| Split modifier for TAS multiplication algorithm                  1.0E+00 (U)


  **** **** ******  **  PROGRAM STARTED AT               2025-06-19 09:54:24.880
 ***** ** ***  *** **   PROGRAM STARTED ON                             nid001310
 **    ****   ******    PROGRAM STARTED BY                                cahart
 ***** **    ** ** **   PROGRAM PROCESS ID                                236104
  **** **  *******  **  PROGRAM STARTED IN /mnt/lustre/a2fs-work2/work/e05/e05/c
                                           ahart/postdoc2/work/group/tio2/anatas
                                           e/cell-441/geo-opt/mp-390/hole/from-n
                                           eutral/pbe-u-o/u-2.8

 CP2K| version string:                                       CP2K version 2024.3
 CP2K| source code revision number:                                  git:6712648
 CP2K| cp2kflags: omp libint fftw3 libxc libgrpp elpa parallel scalapack cosma x
 CP2K|            smm plumed2 spglib mkl sirius libvori libbqb libvdwxc hdf5
 CP2K| is freely available from                            https://www.cp2k.org/
 CP2K| Program compiled at                       Thu 12 Sep 2024 10:20:47 AM BST
 CP2K| Program compiled on                                                  ln04
 CP2K| Program compiled for                                                local
 CP2K| Data directory path    /mnt/lustre/a2fs-work1/work/y07/shared/apps/core/c
 CP2K| Input file name                                                 input.inp

 GLOBAL| Force Environment number                                              1
 GLOBAL| Basis set file name                                        BASIS_MOLOPT
 GLOBAL| Potential file name                                      GTH_POTENTIALS
 GLOBAL| MM Potential file name                                     MM_POTENTIAL
 GLOBAL| Coordinate file name                                         system.xyz
 GLOBAL| Method name                                                        CP2K
 GLOBAL| Project name                                                       tio2
 GLOBAL| Run type                                                        GEO_OPT
 GLOBAL| FFT library                                                       FFTW3
 GLOBAL| Diagonalization library                                            ELPA
 GLOBAL| DGEMM library                                                      BLAS
 GLOBAL| Minimum number of eigenvectors for ELPA usage                        16
 GLOBAL| Orthonormality check for eigenvectors                          DISABLED
 GLOBAL| Matrix multiplication library                                     COSMA
 GLOBAL| All-to-all communication in single precision                          F
 GLOBAL| FFTs using library dependent lengths                                  F
 GLOBAL| Grid backend                                                       AUTO
 GLOBAL| Global print level                                               MEDIUM
 GLOBAL| MPI I/O enabled                                                       T
 GLOBAL| Total number of message passing processes                           128
 GLOBAL| Number of threads for this process                                    1
 GLOBAL| This output is from process                                           0
 GLOBAL| Stack size for threads created by OpenMP (OMP_STACKSIZE)        default
 GLOBAL| CPU model name                          AMD EPYC 7742 64-Core Processor
 GLOBAL| CPUID                                                              1002

 MEMORY| system memory details [Kb]
 MEMORY|                        rank 0           min           max       average
 MEMORY| MemTotal            263341976     263341976     263341976     263341976
 MEMORY| MemFree             234083180     234082932     234084188     234083123
 MEMORY| Buffers                     0             0             0             0
 MEMORY| Cached                2130232       2129344       2130232       2130141
 MEMORY| Slab                  6087560       6087460       6087568       6087554
 MEMORY| SReclaimable           908580        908556        908580        908577
 MEMORY| MemLikelyFree       237121992     237121744     237122088     237121842


 *** Fundamental physical constants (SI units) ***

 *** Literature: B. J. Mohr and B. N. Taylor,
 ***             CODATA recommended values of the fundamental physical
 ***             constants: 2006, Web Version 5.1
 ***             http://physics.nist.gov/constants

 Speed of light in vacuum [m/s]                             2.99792458000000E+08
 Magnetic constant or permeability of vacuum [N/A**2]       1.25663706143592E-06
 Electric constant or permittivity of vacuum [F/m]          8.85418781762039E-12
 Planck constant (h) [J*s]                                  6.62606896000000E-34
 Planck constant (h-bar) [J*s]                              1.05457162825177E-34
 Elementary charge [C]                                      1.60217648700000E-19
 Electron mass [kg]                                         9.10938215000000E-31
 Electron g factor [ ]                                     -2.00231930436220E+00
 Proton mass [kg]                                           1.67262163700000E-27
 Fine-structure constant                                    7.29735253760000E-03
 Rydberg constant [1/m]                                     1.09737315685270E+07
 Avogadro constant [1/mol]                                  6.02214179000000E+23
 Boltzmann constant [J/K]                                   1.38065040000000E-23
 Atomic mass unit [kg]                                      1.66053878200000E-27
 Bohr radius [m]                                            5.29177208590000E-11

 *** Conversion factors ***

 [u] -> [a.u.]                                              1.82288848426455E+03
 [Angstrom] -> [Bohr] = [a.u.]                              1.88972613288564E+00
 [a.u.] = [Bohr] -> [Angstrom]                              5.29177208590000E-01
 [a.u.] -> [s]                                              2.41888432650478E-17
 [a.u.] -> [fs]                                             2.41888432650478E-02
 [a.u.] -> [J]                                              4.35974393937059E-18
 [a.u.] -> [N]                                              8.23872205491840E-08
 [a.u.] -> [K]                                              3.15774647902944E+05
 [a.u.] -> [kJ/mol]                                         2.62549961709828E+03
 [a.u.] -> [kcal/mol]                                       6.27509468713739E+02
 [a.u.] -> [Pa]                                             2.94210107994716E+13
 [a.u.] -> [bar]                                            2.94210107994716E+08
 [a.u.] -> [atm]                                            2.90362800883016E+08
 [a.u.] -> [eV]                                             2.72113838565563E+01
 [a.u.] -> [Hz]                                             6.57968392072181E+15
 [a.u.] -> [1/cm] (wave numbers)                            2.19474631370540E+05
 [a.u./Bohr**2] -> [1/cm]                                   5.14048714338585E+03
 

 CELL_TOP| Volume [angstrom^3]:                                      2198.132028
 CELL_TOP| Vector a [angstrom    15.120     0.000     0.000   |a| =    15.120000
 CELL_TOP| Vector b [angstrom     0.000    15.120     0.000   |b| =    15.120000
 CELL_TOP| Vector c [angstrom     0.000     0.000     9.615   |c| =     9.615020
 CELL_TOP| Angle (b,c), alpha [degree]:                                90.000000
 CELL_TOP| Angle (a,c), beta  [degree]:                                90.000000
 CELL_TOP| Angle (a,b), gamma [degree]:                                90.000000
 CELL_TOP| Requested initial symmetry:                       MONOCLINIC_GAMMA_AB
 CELL_TOP| Numerically orthorhombic:                                         YES
 CELL_TOP| Periodicity                                                       XYZ

 *** WARNING in atoms_input.F:123 :: Overwriting coordinates. Active    ***
 *** coordinates read from &COORD section. Active coordinates READ from ***
 *** &COORD section                                                     ***


 GENERATE|  Preliminary Number of Bonds generated:                             0
 GENERATE|  Achieved consistency in connectivity generation.

 CELL| Volume [angstrom^3]:                                          2198.132028
 CELL| Vector a [angstrom]:      15.120     0.000     0.000   |a| =    15.120000
 CELL| Vector b [angstrom]:       0.000    15.120     0.000   |b| =    15.120000
 CELL| Vector c [angstrom]:       0.000     0.000     9.615   |c| =     9.615020
 CELL| Angle (b,c), alpha [degree]:                                    90.000000
 CELL| Angle (a,c), beta  [degree]:                                    90.000000
 CELL| Angle (a,b), gamma [degree]:                                    90.000000
 CELL| Requested initial symmetry:                           MONOCLINIC_GAMMA_AB
 CELL| Numerically orthorhombic:                                             YES
 CELL| Periodicity                                                           XYZ

 CELL_REF| Volume [angstrom^3]:                                      2198.132028
 CELL_REF| Vector a [angstrom    15.120     0.000     0.000   |a| =    15.120000
 CELL_REF| Vector b [angstrom     0.000    15.120     0.000   |b| =    15.120000
 CELL_REF| Vector c [angstrom     0.000     0.000     9.615   |c| =     9.615020
 CELL_REF| Angle (b,c), alpha [degree]:                                90.000000
 CELL_REF| Angle (a,c), beta  [degree]:                                90.000000
 CELL_REF| Angle (a,b), gamma [degree]:                                90.000000
 CELL_REF| Requested initial symmetry:                       MONOCLINIC_GAMMA_AB
 CELL_REF| Numerically orthorhombic:                                         YES
 CELL_REF| Periodicity                                                       XYZ

 *******************************************************************************
 *******************************************************************************
 **                                                                           **
 **     #####                         ##              ##                      **
 **    ##   ##            ##          ##              ##                      **
 **   ##     ##                       ##            ######                    **
 **   ##     ##  ##   ##  ##   #####  ##  ##   ####   ##    #####    #####    **
 **   ##     ##  ##   ##  ##  ##      ## ##   ##      ##   ##   ##  ##   ##   **
 **   ##  ## ##  ##   ##  ##  ##      ####     ###    ##   ######   ######    **
 **    ##  ###   ##   ##  ##  ##      ## ##      ##   ##   ##       ##        **
 **     #######   #####   ##   #####  ##  ##  ####    ##    #####   ##        **
 **           ##                                                    ##        **
 **                                                                           **
 **                                                ... make the atoms dance   **
 **                                                                           **
 **            Copyright (C) by CP2K developers group (2000-2024)             **
 **                      J. Chem. Phys. 152, 194103 (2020)                    **
 **                                                                           **
 *******************************************************************************

 DFT| Spin unrestricted (spin-polarized) Kohn-Sham calculation               UKS
 DFT| Multiplicity                                                             2
 DFT| Number of spin states                                                    2
 DFT| Charge                                                                   1
 DFT| Self-interaction correction (SIC)                                       NO
 DFT| Cutoffs: density                                              1.000000E-10
 DFT|          gradient                                             1.000000E-10
 DFT|          tau                                                  1.000000E-10
 DFT|          cutoff_smoothing_range                               0.000000E+00
 DFT| XC density smoothing                                                  NONE
 DFT| XC derivatives                                                          PW

 DFT+U| Method                                                          MULLIKEN
 DFT+U| Check atomic kind information for details

 FUNCTIONAL| PBE:
 FUNCTIONAL| J.P.Perdew, K.Burke, M.Ernzerhof, Phys. Rev. Letter, vol. 77, n 18,
 FUNCTIONAL|  pp. 3865-3868, (1996) {spin polarized}                            


 QS| Method:                                                                 GPW
 QS| Density plane wave grid type                        NON-SPHERICAL FULLSPACE
 QS| Number of grid levels:                                                    4
 QS| Density cutoff [a.u.]:                                                300.0
 QS| Multi grid cutoff [a.u.]: 1) grid level                               300.0
 QS|                           2) grid level                               100.0
 QS|                           3) grid level                                33.3
 QS|                           4) grid level                                11.1
 QS| Grid level progression factor:                                          3.0
 QS| Relative density cutoff [a.u.]:                                        20.0
 QS| Interaction thresholds: eps_pgf_orb:                                1.0E-06
 QS|                         eps_filter_matrix:                          0.0E+00
 QS|                         eps_core_charge:                            1.0E-14
 QS|                         eps_rho_gspace:                             1.0E-12
 QS|                         eps_rho_rspace:                             1.0E-12
 QS|                         eps_gvg_rspace:                             1.0E-06
 QS|                         eps_ppl:                                    1.0E-02
 QS|                         eps_ppnl:                                   1.0E-08


 ATOMIC KIND INFORMATION

  1. Atomic kind: Ti                                    Number of atoms:      64

     Orbital Basis Set                                    DZVP-MOLOPT-SR-GTH-q12

       Number of orbital shell sets:                                           1
       Number of orbital shells:                                               8
       Number of primitive Cartesian functions:                                6
       Number of Cartesian basis functions:                                   31
       Number of spherical basis functions:                                   26
       Norm type:                                                              2

       Normalised Cartesian orbitals:

                        Set   Shell   Orbital            Exponent    Coefficient

                          1       1    2s                7.884570       0.015554
                                                         3.894698       0.963603
                                                         1.513589      -0.631435
                                                         0.596768      -0.343022
                                                         0.222222      -0.006534
                                                         0.077078       0.007652

                          1       2    3s                7.884570      -0.009340
                                                         3.894698       0.212624
                                                         1.513589      -0.258368
                                                         0.596768      -0.226206
                                                         0.222222       0.039438
                                                         0.077078       0.107179

                          1       3    4s                7.884570       0.276563
                                                         3.894698       0.105452
                                                         1.513589       0.085149
                                                         0.596768       0.882541
                                                         0.222222      -0.696223
                                                         0.077078       0.156638

                          1       4    3px               7.884570      -2.034794
                                                         3.894698       0.782008
                                                         1.513589       1.253903
                                                         0.596768       0.347823
                                                         0.222222       0.016778
                                                         0.077078      -0.000433
                          1       4    3py               7.884570      -2.034794
                                                         3.894698       0.782008
                                                         1.513589       1.253903
                                                         0.596768       0.347823
                                                         0.222222       0.016778
                                                         0.077078      -0.000433
                          1       4    3pz               7.884570      -2.034794
                                                         3.894698       0.782008
                                                         1.513589       1.253903
                                                         0.596768       0.347823
                                                         0.222222       0.016778
                                                         0.077078      -0.000433

                          1       5    4px               7.884570       0.376572
                                                         3.894698      -0.182875
                                                         1.513589      -0.474776
                                                         0.596768      -0.081757
                                                         0.222222       0.064432
                                                         0.077078       0.047279
                          1       5    4py               7.884570       0.376572
                                                         3.894698      -0.182875
                                                         1.513589      -0.474776
                                                         0.596768      -0.081757
                                                         0.222222       0.064432
                                                         0.077078       0.047279
                          1       5    4pz               7.884570       0.376572
                                                         3.894698      -0.182875
                                                         1.513589      -0.474776
                                                         0.596768      -0.081757
                                                         0.222222       0.064432
                                                         0.077078       0.047279

                          1       6    4dx2              7.884570       3.047350
                                                         3.894698       3.289529
                                                         1.513589       1.060616
                                                         0.596768       0.249930
                                                         0.222222       0.038806
                                                         0.077078       0.002319
                          1       6    4dxy              7.884570       5.278165
                                                         3.894698       5.697631
                                                         1.513589       1.837041
                                                         0.596768       0.432892
                                                         0.222222       0.067214
                                                         0.077078       0.004017
                          1       6    4dxz              7.884570       5.278165
                                                         3.894698       5.697631
                                                         1.513589       1.837041
                                                         0.596768       0.432892
                                                         0.222222       0.067214
                                                         0.077078       0.004017
                          1       6    4dy2              7.884570       3.047350
                                                         3.894698       3.289529
                                                         1.513589       1.060616
                                                         0.596768       0.249930
                                                         0.222222       0.038806
                                                         0.077078       0.002319
                          1       6    4dyz              7.884570       5.278165
                                                         3.894698       5.697631
                                                         1.513589       1.837041
                                                         0.596768       0.432892
                                                         0.222222       0.067214
                                                         0.077078       0.004017
                          1       6    4dz2              7.884570       3.047350
                                                         3.894698       3.289529
                                                         1.513589       1.060616
                                                         0.596768       0.249930
                                                         0.222222       0.038806
                                                         0.077078       0.002319

                          1       7    5dx2              7.884570      -2.119015
                                                         3.894698      -1.237751
                                                         1.513589      -0.746777
                                                         0.596768      -0.071514
                                                         0.222222       0.004086
                                                         0.077078       0.017595
                          1       7    5dxy              7.884570      -3.670241
                                                         3.894698      -2.143848
                                                         1.513589      -1.293455
                                                         0.596768      -0.123865
                                                         0.222222       0.007077
                                                         0.077078       0.030475
                          1       7    5dxz              7.884570      -3.670241
                                                         3.894698      -2.143848
                                                         1.513589      -1.293455
                                                         0.596768      -0.123865
                                                         0.222222       0.007077
                                                         0.077078       0.030475
                          1       7    5dy2              7.884570      -2.119015
                                                         3.894698      -1.237751
                                                         1.513589      -0.746777
                                                         0.596768      -0.071514
                                                         0.222222       0.004086
                                                         0.077078       0.017595
                          1       7    5dyz              7.884570      -3.670241
                                                         3.894698      -2.143848
                                                         1.513589      -1.293455
                                                         0.596768      -0.123865
                                                         0.222222       0.007077
                                                         0.077078       0.030475
                          1       7    5dz2              7.884570      -2.119015
                                                         3.894698      -1.237751
                                                         1.513589      -0.746777
                                                         0.596768      -0.071514
                                                         0.222222       0.004086
                                                         0.077078       0.017595

                          1       8    5fx3              7.884570      -0.342058
                                                         3.894698       0.375798
                                                         1.513589      -0.706469
                                                         0.596768      -0.229994
                                                         0.222222      -0.012723
                                                         0.077078       0.003932
                          1       8    5fx2y             7.884570      -0.764866
                                                         3.894698       0.840310
                                                         1.513589      -1.579712
                                                         0.596768      -0.514282
                                                         0.222222      -0.028450
                                                         0.077078       0.008792
                          1       8    5fx2z             7.884570      -0.764866
                                                         3.894698       0.840310
                                                         1.513589      -1.579712
                                                         0.596768      -0.514282
                                                         0.222222      -0.028450
                                                         0.077078       0.008792
                          1       8    5fxy2             7.884570      -0.764866
                                                         3.894698       0.840310
                                                         1.513589      -1.579712
                                                         0.596768      -0.514282
                                                         0.222222      -0.028450
                                                         0.077078       0.008792
                          1       8    5fxyz             7.884570      -1.324787
                                                         3.894698       1.455460
                                                         1.513589      -2.736142
                                                         0.596768      -0.890763
                                                         0.222222      -0.049276
                                                         0.077078       0.015229
                          1       8    5fxz2             7.884570      -0.764866
                                                         3.894698       0.840310
                                                         1.513589      -1.579712
                                                         0.596768      -0.514282
                                                         0.222222      -0.028450
                                                         0.077078       0.008792
                          1       8    5fy3              7.884570      -0.342058
                                                         3.894698       0.375798
                                                         1.513589      -0.706469
                                                         0.596768      -0.229994
                                                         0.222222      -0.012723
                                                         0.077078       0.003932
                          1       8    5fy2z             7.884570      -0.764866
                                                         3.894698       0.840310
                                                         1.513589      -1.579712
                                                         0.596768      -0.514282
                                                         0.222222      -0.028450
                                                         0.077078       0.008792
                          1       8    5fyz2             7.884570      -0.764866
                                                         3.894698       0.840310
                                                         1.513589      -1.579712
                                                         0.596768      -0.514282
                                                         0.222222      -0.028450
                                                         0.077078       0.008792
                          1       8    5fz3              7.884570      -0.342058
                                                         3.894698       0.375798
                                                         1.513589      -0.706469
                                                         0.596768      -0.229994
                                                         0.222222      -0.012723
                                                         0.077078       0.003932

       Atomic covalent radius [Angstrom]:                                  1.320

       Atomic van der Waals radius [Angstrom]:                             1.760

     GTH Potential information for                                   GTH-PBE-q12

       Description:                       Goedecker-Teter-Hutter pseudopotential
                                           Goedecker et al., PRB 54, 1703 (1996)
                                          Hartwigsen et al., PRB 58, 3641 (1998)
                                                      Krack, TCA 114, 145 (2005)

       Gaussian exponent of the core charge distribution:               3.462604
       Electronic configuration (s p d ...):                           4   6   2

       Parameters of the local part of the GTH pseudopotential:

                          rloc        C1          C2          C3          C4
                        0.380000    8.711442   -0.700287

       Parameters of the non-local part of the GTH pseudopotential:

                   l      r(l)      h(i,j,l)

                   0    0.337771    2.575264    3.692971
                                    3.692971   -4.767605
                   1    0.242531   -4.630541    8.870875
                                    8.870875  -10.496161
                   2    0.243317   -9.406653

  2. Atomic kind: O                                     Number of atoms:     128

     Orbital Basis Set                                     DZVP-MOLOPT-SR-GTH-q6

       Number of orbital shell sets:                                           1
       Number of orbital shells:                                               5
       Number of primitive Cartesian functions:                                5
       Number of Cartesian basis functions:                                   14
       Number of spherical basis functions:                                   13
       Norm type:                                                              2

       Normalised Cartesian orbitals:

                        Set   Shell   Orbital            Exponent    Coefficient

                          1       1    2s               10.389228       0.396646
                                                         3.849621       0.208811
                                                         1.388401      -0.301641
                                                         0.496955      -0.274061
                                                         0.162492      -0.033677

                          1       2    3s               10.389228       0.303673
                                                         3.849621       0.240943
                                                         1.388401      -0.313066
                                                         0.496955      -0.043055
                                                         0.162492       0.213991

                          1       3    3px              10.389228      -1.530415
                                                         3.849621      -1.371928
                                                         1.388401      -0.761951
                                                         0.496955      -0.253695
                                                         0.162492      -0.035541
                          1       3    3py              10.389228      -1.530415
                                                         3.849621      -1.371928
                                                         1.388401      -0.761951
                                                         0.496955      -0.253695
                                                         0.162492      -0.035541
                          1       3    3pz              10.389228      -1.530415
                                                         3.849621      -1.371928
                                                         1.388401      -0.761951
                                                         0.496955      -0.253695
                                                         0.162492      -0.035541

                          1       4    4px              10.389228      -0.565392
                                                         3.849621      -0.038231
                                                         1.388401      -0.382373
                                                         0.496955       0.179070
                                                         0.162492       0.122714
                          1       4    4py              10.389228      -0.565392
                                                         3.849621      -0.038231
                                                         1.388401      -0.382373
                                                         0.496955       0.179070
                                                         0.162492       0.122714
                          1       4    4pz              10.389228      -0.565392
                                                         3.849621      -0.038231
                                                         1.388401      -0.382373
                                                         0.496955       0.179070
                                                         0.162492       0.122714

                          1       5    4dx2             10.389228       1.867377
                                                         3.849621       0.670994
                                                         1.388401       1.353441
                                                         0.496955       0.273538
                                                         0.162492       0.006620
                          1       5    4dxy             10.389228       3.234392
                                                         3.849621       1.162195
                                                         1.388401       2.344229
                                                         0.496955       0.473781
                                                         0.162492       0.011466
                          1       5    4dxz             10.389228       3.234392
                                                         3.849621       1.162195
                                                         1.388401       2.344229
                                                         0.496955       0.473781
                                                         0.162492       0.011466
                          1       5    4dy2             10.389228       1.867377
                                                         3.849621       0.670994
                                                         1.388401       1.353441
                                                         0.496955       0.273538
                                                         0.162492       0.006620
                          1       5    4dyz             10.389228       3.234392
                                                         3.849621       1.162195
                                                         1.388401       2.344229
                                                         0.496955       0.473781
                                                         0.162492       0.011466
                          1       5    4dz2             10.389228       1.867377
                                                         3.849621       0.670994
                                                         1.388401       1.353441
                                                         0.496955       0.273538
                                                         0.162492       0.006620

       Atomic covalent radius [Angstrom]:                                  0.730

       Atomic van der Waals radius [Angstrom]:                             1.520

     GTH Potential information for                                    GTH-PBE-q6

       Description:                       Goedecker-Teter-Hutter pseudopotential
                                           Goedecker et al., PRB 54, 1703 (1996)
                                          Hartwigsen et al., PRB 58, 3641 (1998)
                                                      Krack, TCA 114, 145 (2005)

       Gaussian exponent of the core charge distribution:               8.360253
       Electronic configuration (s p d ...):                               2   4

       Parameters of the local part of the GTH pseudopotential:

                          rloc        C1          C2          C3          C4
                        0.244554  -16.667215    2.487311

       Parameters of the non-local part of the GTH pseudopotential:

                   l      r(l)      h(i,j,l)

                   0    0.220956   18.337458
                   1    0.211332

     A DFT+U correction is applied to atoms of this atomic kind:
       Angular quantum momentum number L:                                      1
       U(eff) = (U - J) value in [eV]:                                     2.800


 MOLECULE KIND INFORMATION


 All atoms are their own molecule, skipping detailed information


 TOTAL NUMBERS AND MAXIMUM NUMBERS

  Total number of            - Atomic kinds:                                   2
                             - Atoms:                                        192
                             - Shell sets:                                   192
                             - Shells:                                      1152
                             - Primitive Cartesian functions:               1024
                             - Cartesian basis functions:                   3776
                             - Spherical basis functions:                   3328

  Maximum angular momentum of- Orbital basis functions:                        3
                             - Local part of the GTH pseudopotential:          2
                             - Non-local part of the GTH pseudopotential:      3


 MODULE QUICKSTEP: ATOMIC COORDINATES IN ANGSTROM

   Atom Kind Element         X             Y             Z       Z(eff)     Mass
      1    1 Ti   22      0.000810      0.000800     -0.000001  12.0000  47.8670
      2    1 Ti   22      1.888378      1.888384      4.807509  12.0000  47.8670
      3    1 Ti   22      0.000794      1.888364      2.402070  12.0000  47.8670
      4    1 Ti   22      1.888377      0.000791      7.212947  12.0000  47.8670
      5    1 Ti   22      0.000809      3.776021      0.003067  12.0000  47.8670
      6    1 Ti   22      1.888392     13.237829      4.805774  12.0000  47.8670
      7    1 Ti   22     11.350308      1.888371      2.403682  12.0000  47.8670
      8    1 Ti   22      5.669354      0.000835      7.216993  12.0000  47.8670
      9    1 Ti   22      1.888403      3.776035      7.209861  12.0000  47.8670
     10    1 Ti   22      0.000812     13.237796      2.403811  12.0000  47.8670
     11    1 Ti   22      5.669377      1.888477      4.803434  12.0000  47.8670
     12    1 Ti   22     11.350294      0.000783     -0.001620  12.0000  47.8670
     13    1 Ti   22      3.776027      0.000813     -0.003059  12.0000  47.8670
     14    1 Ti   22     13.237828      1.888388      4.809245  12.0000  47.8670
     15    1 Ti   22     13.237808      0.000812      7.211221  12.0000  47.8670
     16    1 Ti   22      3.776038      1.888411      2.405159  12.0000  47.8670
     17    1 Ti   22      1.888475      5.669383      4.811582  12.0000  47.8670
     18    1 Ti   22      0.000785     11.350300      0.001613  12.0000  47.8670
     19    1 Ti   22      0.000835      5.669354      2.398019  12.0000  47.8670
     20    1 Ti   22      1.888377     11.350302      7.211335  12.0000  47.8670
     21    1 Ti   22      0.000833      7.569691      0.005684  12.0000  47.8670
     22    1 Ti   22      1.888425      9.462845      4.808814  12.0000  47.8670
     23    1 Ti   22      7.569687      1.888465      2.407779  12.0000  47.8670
     24    1 Ti   22      9.462834      0.000810      7.214240  12.0000  47.8670
     25    1 Ti   22      1.888463      7.569680      7.207244  12.0000  47.8670
     26    1 Ti   22      0.000812      9.462834      2.400785  12.0000  47.8670
     27    1 Ti   22      9.462845      1.888429      4.806204  12.0000  47.8670
     28    1 Ti   22      7.569684      0.000835     -0.005680  12.0000  47.8670
     29    1 Ti   22      3.776066      3.776071     -0.000001  12.0000  47.8670
     30    1 Ti   22     13.237819     13.237824      4.807518  12.0000  47.8670
     31    1 Ti   22     11.350219      5.669372      2.399610  12.0000  47.8670
     32    1 Ti   22      5.669376     11.350208      7.215406  12.0000  47.8670
     33    1 Ti   22     13.237798      3.776034      7.208160  12.0000  47.8670
     34    1 Ti   22      3.776037     13.237797      2.406866  12.0000  47.8670
     35    1 Ti   22      5.669390      5.669394      4.807506  12.0000  47.8670
     36    1 Ti   22     11.350300     11.350304     -0.000000  12.0000  47.8670
     37    1 Ti   22     11.350306     13.237820      2.405423  12.0000  47.8670
     38    1 Ti   22      5.669383      3.776141      7.213983  12.0000  47.8670
     39    1 Ti   22      3.776028     11.350272     -0.001472  12.0000  47.8670
     40    1 Ti   22     13.237789      5.669365      4.813288  12.0000  47.8670
     41    1 Ti   22      5.669371     13.237789      4.801735  12.0000  47.8670
     42    1 Ti   22     11.350263      3.776026      0.001471  12.0000  47.8670
     43    1 Ti   22     13.237824     11.350294      7.209600  12.0000  47.8670
     44    1 Ti   22      3.776140      5.669386      2.401037  12.0000  47.8670
     45    1 Ti   22      3.776133      7.569662      0.002666  12.0000  47.8670
     46    1 Ti   22     13.237818      9.462850      4.810526  12.0000  47.8670
     47    1 Ti   22      7.569667      5.669383      2.403699  12.0000  47.8670
     48    1 Ti   22      9.462837     11.350266      7.212640  12.0000  47.8670
     49    1 Ti   22     13.237786      7.569692      7.205541  12.0000  47.8670
     50    1 Ti   22      3.776072      9.462792      2.403847  12.0000  47.8670
     51    1 Ti   22      9.462731      5.669404      4.810323  12.0000  47.8670
     52    1 Ti   22      7.569677     11.350227     -0.004089  12.0000  47.8670
     53    1 Ti   22     11.350272      9.462831      2.402373  12.0000  47.8670
     54    1 Ti   22      5.669381      7.569659      7.211315  12.0000  47.8670
     55    1 Ti   22      5.669404      9.462735      4.804690  12.0000  47.8670
     56    1 Ti   22     11.350218      7.569676      0.004084  12.0000  47.8670
     57    1 Ti   22      9.462790      3.776070      7.211169  12.0000  47.8670
     58    1 Ti   22      7.569698     13.237785      2.409482  12.0000  47.8670
     59    1 Ti   22      7.569656      3.776134     -0.002667  12.0000  47.8670
     60    1 Ti   22      9.462850     13.237827      4.804496  12.0000  47.8670
     61    1 Ti   22      7.569660      7.569667      0.000000  12.0000  47.8670
     62    1 Ti   22      9.462817      9.462816      4.807509  12.0000  47.8670
     63    1 Ti   22      7.569665      9.462730      2.406509  12.0000  47.8670
     64    1 Ti   22      9.462726      7.569662      7.208509  12.0000  47.8670
     65    2 O     8      0.000911      0.001583      1.991751   6.0000  15.9994
     66    2 O     8      1.884847      1.887541      6.799629   6.0000  15.9994
     67    2 O     8      0.001572      1.884813      4.395921   6.0000  15.9994
     68    2 O     8      1.887563      0.000904      9.202961   6.0000  15.9994
     69    2 O     8      1.884814      0.001571      5.219100   6.0000  15.9994
     70    2 O     8      0.000905      1.887562      0.412060   6.0000  15.9994
     71    2 O     8      1.887542      1.884848      2.815390   6.0000  15.9994
     72    2 O     8      0.001585      0.000910      7.623267   6.0000  15.9994
     73    2 O     8      0.000939      3.775978      1.989752   6.0000  15.9994
     74    2 O     8      1.884814     13.237004      6.799673   6.0000  15.9994
     75    2 O     8     11.351144      1.884843      4.395935   6.0000  15.9994
     76    2 O     8      5.672143      0.000884      9.204266   6.0000  15.9994
     77    2 O     8      1.884950      3.775944      5.221068   6.0000  15.9994
     78    2 O     8      0.000910     13.236993      0.412007   6.0000  15.9994
     79    2 O     8      5.672125      1.884947      2.814162   6.0000  15.9994
     80    2 O     8     11.351123      0.000903      7.623263   6.0000  15.9994
     81    2 O     8      3.775978      0.000939      7.625264   6.0000  15.9994
     82    2 O     8     13.237006      1.884814      2.815347   6.0000  15.9994
     83    2 O     8     13.236995      0.000910      9.203010   6.0000  15.9994
     84    2 O     8      3.775948      1.884951      4.393948   6.0000  15.9994
     85    2 O     8      1.884944      5.672114      6.800859   6.0000  15.9994
     86    2 O     8      0.000902     11.351125      1.991758   6.0000  15.9994
     87    2 O     8      0.000883      5.672147      0.410756   6.0000  15.9994
     88    2 O     8      1.884845     11.351142      5.219084   6.0000  15.9994
     89    2 O     8      0.000882      7.566949      1.993013   6.0000  15.9994
     90    2 O     8      1.884948      9.462868      6.797773   6.0000  15.9994
     91    2 O     8      7.566978      1.884943      4.397118   6.0000  15.9994
     92    2 O     8      9.462839      0.000938      9.201084   6.0000  15.9994
     93    2 O     8      1.884943      7.566973      5.217904   6.0000  15.9994
     94    2 O     8      0.000939      9.462835      0.413938   6.0000  15.9994
     95    2 O     8      9.462868      1.884949      2.817247   6.0000  15.9994
     96    2 O     8      7.566951      0.000883      7.622010   6.0000  15.9994
     97    2 O     8      3.769757      0.001574      1.992176   6.0000  15.9994
     98    2 O     8     13.237577      1.887563      6.799200   6.0000  15.9994
     99    2 O     8      0.001593      5.655913      4.395479   6.0000  15.9994
    100    2 O     8      1.887540     11.353710      9.203387   6.0000  15.9994
    101    2 O     8     13.237573      0.001585      5.219515   6.0000  15.9994
    102    2 O     8      3.769859      1.887583      0.411658   6.0000  15.9994
    103    2 O     8      1.887708      5.656169      2.815850   6.0000  15.9994
    104    2 O     8      0.001570     11.353740      7.622854   6.0000  15.9994
    105    2 O     8     11.353709      1.887541      0.411631   6.0000  15.9994
    106    2 O     8      5.655911      0.001594      5.219539   6.0000  15.9994
    107    2 O     8      5.656173      1.887706      6.799167   6.0000  15.9994
    108    2 O     8     11.353740      0.001571      1.992166   6.0000  15.9994
    109    2 O     8      1.887581      3.769859      9.203363   6.0000  15.9994
    110    2 O     8      0.001585     13.237572      4.395502   6.0000  15.9994
    111    2 O     8      0.001574      3.769757      7.622842   6.0000  15.9994
    112    2 O     8      1.887563     13.237576      2.815819   6.0000  15.9994
    113    2 O     8      3.770016      3.775978      1.990242   6.0000  15.9994
    114    2 O     8     13.237571     13.236997      6.799252   6.0000  15.9994
    115    2 O     8     11.350978      5.656142      4.395472   6.0000  15.9994
    116    2 O     8      5.672116     11.353615      9.204615   6.0000  15.9994
    117    2 O     8     13.237544      3.775980      5.221517   6.0000  15.9994
    118    2 O     8      3.769758     13.237001      0.411579   6.0000  15.9994
    119    2 O     8      5.672168      5.656620      2.814307   6.0000  15.9994
    120    2 O     8     11.351143     11.353712      7.622837   6.0000  15.9994
    121    2 O     8     11.353742     13.237003      0.411590   6.0000  15.9994
    122    2 O     8      5.656383      3.776104      5.221333   6.0000  15.9994
    123    2 O     8      3.775947     11.353608      7.624818   6.0000  15.9994
    124    2 O     8     13.236985      5.655928      2.815787   6.0000  15.9994
    125    2 O     8      5.655933     13.236987      6.799228   6.0000  15.9994
    126    2 O     8     11.353609      3.775944      1.990200   6.0000  15.9994
    127    2 O     8     13.237004     11.353741      9.203430   6.0000  15.9994
    128    2 O     8      3.776099      5.656385      4.393687   6.0000  15.9994
    129    2 O     8      5.656621      5.672173      6.800717   6.0000  15.9994
    130    2 O     8     11.353712     11.351145      1.992184   6.0000  15.9994
    131    2 O     8     13.237002      3.769755      9.203440   6.0000  15.9994
    132    2 O     8      3.775978     13.237546      4.393501   6.0000  15.9994
    133    2 O     8     11.353615      5.672116      0.410406   6.0000  15.9994
    134    2 O     8      5.656135     11.350978      5.219546   6.0000  15.9994
    135    2 O     8      3.775984      3.770017      7.624782   6.0000  15.9994
    136    2 O     8     13.236995     13.237571      2.815767   6.0000  15.9994
    137    2 O     8     13.237579     11.351122      5.219513   6.0000  15.9994
    138    2 O     8      3.770058      5.672100      0.410364   6.0000  15.9994
    139    2 O     8      5.672151     13.237597      2.814512   6.0000  15.9994
    140    2 O     8     11.351102      3.769852      7.622865   6.0000  15.9994
    141    2 O     8      3.769852     11.351105      1.992157   6.0000  15.9994
    142    2 O     8     13.237600      5.672146      6.800510   6.0000  15.9994
    143    2 O     8     11.351125     13.237579      4.395511   6.0000  15.9994
    144    2 O     8      5.672107      3.770058      9.204658   6.0000  15.9994
    145    2 O     8      3.770055      7.566989      1.993402   6.0000  15.9994
    146    2 O     8     13.237544      9.462837      6.797324   6.0000  15.9994
    147    2 O     8      7.566923      5.656594      4.396973   6.0000  15.9994
    148    2 O     8      9.462866     11.353614      9.201531   6.0000  15.9994
    149    2 O     8     13.237601      7.566946      5.218256   6.0000  15.9994
    150    2 O     8      3.770010      9.462831      0.413454   6.0000  15.9994
    151    2 O     8      9.462707      5.656389      2.817523   6.0000  15.9994
    152    2 O     8      7.566973     11.353617      7.621657   6.0000  15.9994
    153    2 O     8     11.353613      9.462869      0.413490   6.0000  15.9994
    154    2 O     8      5.656592      7.566913      5.218046   6.0000  15.9994
    155    2 O     8      5.656391      9.462705      6.797493   6.0000  15.9994
    156    2 O     8     11.353617      7.566978      1.993361   6.0000  15.9994
    157    2 O     8      9.462828      3.770010      9.201566   6.0000  15.9994
    158    2 O     8      7.566946     13.237601      4.396768   6.0000  15.9994
    159    2 O     8      7.566987      3.770057      7.621616   6.0000  15.9994
    160    2 O     8      9.462838     13.237545      2.817700   6.0000  15.9994
    161    2 O     8      7.582855      0.001591      1.991762   6.0000  15.9994
    162    2 O     8      9.468707      1.887581      6.799586   6.0000  15.9994
    163    2 O     8      0.001573      9.468802      4.395910   6.0000  15.9994
    164    2 O     8      1.887695      7.582627      9.202959   6.0000  15.9994
    165    2 O     8      9.468803      0.001574      5.219110   6.0000  15.9994
    166    2 O     8      7.582629      1.887695      0.412059   6.0000  15.9994
    167    2 O     8      1.887577      9.468706      2.815434   6.0000  15.9994
    168    2 O     8      0.001591      7.582855      7.623257   6.0000  15.9994
    169    2 O     8      7.582399      3.776092      1.989955   6.0000  15.9994
    170    2 O     8      9.468803     13.237004      6.799662   6.0000  15.9994
    171    2 O     8     11.351102      9.468715      4.395891   6.0000  15.9994
    172    2 O     8      5.672158      7.582195      9.204468   6.0000  15.9994
    173    2 O     8      9.468558      3.775977      5.221053   6.0000  15.9994
    174    2 O     8      7.582855     13.236989      0.411995   6.0000  15.9994
    175    2 O     8      5.672096      9.468524      2.814138   6.0000  15.9994
    176    2 O     8     11.350992      7.582642      7.623267   6.0000  15.9994
    177    2 O     8      3.776089      7.582399      7.625063   6.0000  15.9994
    178    2 O     8     13.237002      9.468803      2.815358   6.0000  15.9994
    179    2 O     8     13.236988      7.582854      9.203024   6.0000  15.9994
    180    2 O     8      3.775973      9.468555      4.393965   6.0000  15.9994
    181    2 O     8      9.468523      5.672106      6.800876   6.0000  15.9994
    182    2 O     8      7.582642     11.350994      1.991752   6.0000  15.9994
    183    2 O     8      7.582195      5.672167      0.410552   6.0000  15.9994
    184    2 O     8      9.468714     11.351103      5.219130   6.0000  15.9994
    185    2 O     8      7.582202      7.566932      1.993216   6.0000  15.9994
    186    2 O     8      9.468564      9.462838      6.797787   6.0000  15.9994
    187    2 O     8      7.566973      9.468527      4.397134   6.0000  15.9994
    188    2 O     8      9.462724      7.582411      9.201273   6.0000  15.9994
    189    2 O     8      9.468525      7.566994      5.217885   6.0000  15.9994
    190    2 O     8      7.582409      9.462722      0.413749   6.0000  15.9994
    191    2 O     8      9.462832      9.468564      2.817237   6.0000  15.9994
    192    2 O     8      7.566932      7.582204      7.621806   6.0000  15.9994



 SCF PARAMETERS         Density guess:                                   RESTART
                        --------------------------------------------------------
                        max_scf:                                              40
                        max_scf_history:                                       0
                        max_diis:                                              4
                        --------------------------------------------------------
                        eps_scf:                                        1.00E-06
                        eps_scf_history:                                0.00E+00
                        eps_diis:                                       1.00E-01
                        eps_eigval:                                     1.00E-05
                        --------------------------------------------------------
                        level_shift [a.u.]:                             0.000000
                        --------------------------------------------------------
                        Outer loop SCF in use 
                        No variables optimised in outer loop
                        eps_scf                                         1.00E-06
                        max_scf                                               60
                        No outer loop optimization
                        step_size                                       5.00E-01

 PW_GRID| Information for grid number                                          1
 PW_GRID| Grid distributed over                                   128 processors
 PW_GRID| Real space group dimensions                                   128    1
 PW_GRID| the grid is blocked:                                                NO
 PW_GRID| Cutoff [a.u.]                                                    300.0
 PW_GRID| spherical cutoff:                                                   NO
 PW_GRID|   Bounds   1           -112     112                Points:         225
 PW_GRID|   Bounds   2           -112     112                Points:         225
 PW_GRID|   Bounds   3            -72      71                Points:         144
 PW_GRID| Volume element (a.u.^3)  0.2035E-02     Volume (a.u.^3)     14833.7304
 PW_GRID| Grid span                                                    FULLSPACE
 PW_GRID|   Distribution                         Average         Max         Min
 PW_GRID|   G-Vectors                            56953.1       57150       56925
 PW_GRID|   G-Rays                                 253.1         254         253
 PW_GRID|   Real Space Points                    56953.1       64800       32400

 PW_GRID| Information for grid number                                          2
 PW_GRID| Number of the reference grid                                         1
 PW_GRID| Grid distributed over                                   128 processors
 PW_GRID| Real space group dimensions                                   128    1
 PW_GRID| the grid is blocked:                                                NO
 PW_GRID| Cutoff [a.u.]                                                    100.0
 PW_GRID| spherical cutoff:                                                   NO
 PW_GRID|   Bounds   1            -67      67                Points:         135
 PW_GRID|   Bounds   2            -67      67                Points:         135
 PW_GRID|   Bounds   3            -40      40                Points:          81
 PW_GRID| Volume element (a.u.^3)  0.1005E-01     Volume (a.u.^3)     14833.7304
 PW_GRID| Grid span                                                    FULLSPACE
 PW_GRID|   Distribution                         Average         Max         Min
 PW_GRID|   G-Vectors                            11533.0       12150       10800
 PW_GRID|   G-Rays                                  85.4          90          80
 PW_GRID|   Real Space Points                    11533.0       21870       10935

 PW_GRID| Information for grid number                                          3
 PW_GRID| Number of the reference grid                                         1
 PW_GRID| Grid distributed over                                   128 processors
 PW_GRID| Real space group dimensions                                     8   16
 PW_GRID| the grid is blocked:                                                NO
 PW_GRID| Cutoff [a.u.]                                                     33.3
 PW_GRID| spherical cutoff:                                                   NO
 PW_GRID|   Bounds   1            -37      37                Points:          75
 PW_GRID|   Bounds   2            -37      37                Points:          75
 PW_GRID|   Bounds   3            -24      23                Points:          48
 PW_GRID| Volume element (a.u.^3)  0.5494E-01     Volume (a.u.^3)     14833.7304
 PW_GRID| Grid span                                                    FULLSPACE
 PW_GRID|   Distribution                         Average         Max         Min
 PW_GRID|   G-Vectors                             2109.4        2475        1725
 PW_GRID|   G-Rays                                  28.1          33          23
 PW_GRID|   Real Space Points                     2109.4        2400        1728

 PW_GRID| Information for grid number                                          4
 PW_GRID| Number of the reference grid                                         1
 PW_GRID| Grid distributed over                                   128 processors
 PW_GRID| Real space group dimensions                                     8   16
 PW_GRID| the grid is blocked:                                                NO
 PW_GRID| Cutoff [a.u.]                                                     11.1
 PW_GRID| spherical cutoff:                                                   NO
 PW_GRID|   Bounds   1            -22      22                Points:          45
 PW_GRID|   Bounds   2            -22      22                Points:          45
 PW_GRID|   Bounds   3            -13      13                Points:          27
 PW_GRID| Volume element (a.u.^3)  0.2713         Volume (a.u.^3)     14833.7304
 PW_GRID| Grid span                                                    FULLSPACE
 PW_GRID|   Distribution                         Average         Max         Min
 PW_GRID|   G-Vectors                              427.1         585         270
 PW_GRID|   G-Rays                                   9.5          13           6
 PW_GRID|   Real Space Points                      427.1         486         270

 POISSON| Solver                                                        PERIODIC
 POISSON| Periodicity                                                        XYZ

 RS_GRID| Information for grid number                                          1
 RS_GRID|   Bounds   1           -112     112                Points:         225
 RS_GRID|   Bounds   2           -112     112                Points:         225
 RS_GRID|   Bounds   3            -72      71                Points:         144
 RS_GRID| Real space distribution over                                  8 groups
 RS_GRID| Real space distribution along direction                              1
 RS_GRID| Border size                                                         26
 RS_GRID| Real space distribution over                                 16 groups
 RS_GRID| Real space distribution along direction                              2
 RS_GRID| Border size                                                         26
 RS_GRID|   Distribution                         Average         Max         Min
 RS_GRID|   Planes                                  80.1          81          80
 RS_GRID|   Distribution                         Average         Max         Min
 RS_GRID|   Planes                                  66.1          67          66

 RS_GRID| Information for grid number                                          2
 RS_GRID|   Bounds   1            -67      67                Points:         135
 RS_GRID|   Bounds   2            -67      67                Points:         135
 RS_GRID|   Bounds   3            -40      40                Points:          81
 RS_GRID| Real space distribution over                                  8 groups
 RS_GRID| Real space distribution along direction                              1
 RS_GRID| Border size                                                         24
 RS_GRID| Real space distribution over                                 16 groups
 RS_GRID| Real space distribution along direction                              2
 RS_GRID| Border size                                                         24
 RS_GRID|   Distribution                         Average         Max         Min
 RS_GRID|   Planes                                  64.9          65          64
 RS_GRID|   Distribution                         Average         Max         Min
 RS_GRID|   Planes                                  56.4          57          56

 RS_GRID| Information for grid number                                          3
 RS_GRID|   Bounds   1            -37      37                Points:          75
 RS_GRID|   Bounds   2            -37      37                Points:          75
 RS_GRID|   Bounds   3            -24      23                Points:          48
 RS_GRID| Real space fully replicated
 RS_GRID| Group size                                                           1

 RS_GRID| Information for grid number                                          4
 RS_GRID|   Bounds   1            -22      22                Points:          45
 RS_GRID|   Bounds   2            -22      22                Points:          45
 RS_GRID|   Bounds   3            -13      13                Points:          27
 RS_GRID| Real space fully replicated
 RS_GRID| Group size                                                           1

 BFGS| Use rational function optimization for step estimation:                NO
 BFGS| Use model Hessian for initial guess:                                  YES
 BFGS| Restart Hessian:                                                       NO
 BFGS| Trust radius:                                                       0.472

 *******************************************************************************
 ***                     STARTING GEOMETRY OPTIMIZATION                      ***
 ***                                   BFGS                                  ***
 *******************************************************************************

 Spin 1

 Number of electrons:                                                        768
 Number of occupied orbitals:                                                768
 Number of molecular orbitals:                                               768

 Spin 2

 Number of electrons:                                                        767
 Number of occupied orbitals:                                                767
 Number of molecular orbitals:                                               767

 Number of orbital functions:                                               3328
 Number of independent orbital functions:                                   3328

 Extrapolation method: initial_guess

 *** WARNING in qs_initial_guess.F:306 :: User requested to restart the    ***
 *** wavefunction from the file named: tio2-RESTART.wfn. This file does    ***
 *** not exist. Please check the existence of the file or change properly  ***
 *** the value of the keyword WFN_RESTART_FILE_NAME. Calculation continues ***
 *** using ATOMIC GUESS.                                                   ***


 Atomic guess: The first density matrix is obtained in terms of atomic orbitals
               and electronic configurations assigned to each atomic kind

 Guess for atomic kind: Ti

 Electronic structure
    Total number of core electrons                                         10.00
    Total number of valence electrons                                      12.00
    Total number of electrons                                              22.00
    Multiplicity                                                   not specified
    S   [  2.00  2.00] 2.00  2.00
    P   [  6.00] 6.00
    D      2.00


 *******************************************************************************
                  Iteration          Convergence                     Energy [au]
 *******************************************************************************
                          1         2.59099                     -56.573945749309
                          2        0.737518                     -57.461623245624
                          3        0.123244E-01                 -57.676656834797
                          4        0.338536E-02                 -57.676690535970
                          5        0.252157E-03                 -57.676697146183
                          6        0.162704E-05                 -57.676697160103
                          7        0.846593E-06                 -57.676697160104

 Energy components [Hartree]           Total Energy ::          -57.676697160104
                                        Band Energy ::          -13.440549799540
                                     Kinetic Energy ::           25.008468428381
                                   Potential Energy ::          -82.685165588485
                                      Virial (-V/T) ::            3.306286661467
                                        Core Energy ::          -97.155838374470
                                          XC Energy ::           -6.919409696495
                                     Coulomb Energy ::           46.398550910862
                       Total Pseudopotential Energy ::         -122.259340742080
                       Local Pseudopotential Energy ::         -118.928992669456
                    Nonlocal Pseudopotential Energy ::           -3.330348072625
                                        Confinement ::            0.950339392289

 Orbital energies  State     L     Occupation   Energy[a.u.]          Energy[eV]

                       1     0          2.000      -2.312566          -62.928123
                       2     0          2.000      -0.123060           -3.348633

                       1     1          6.000      -1.385567          -37.703193

                       1     2          2.000      -0.127948           -3.481643


 Total Electron Density at R=0:                                         0.004726

 Guess for atomic kind: O

 Electronic structure
    Total number of core electrons                                          2.00
    Total number of valence electrons                                       6.00
    Total number of electrons                                               8.00
    Multiplicity                                                   not specified
    S   [  2.00] 2.00
    P      4.00


 *******************************************************************************
                  Iteration          Convergence                     Energy [au]
 *******************************************************************************
                          1        0.702811                     -15.577904332270
                          2        0.612408                     -15.588447180504
                          3        0.955344E-02                 -15.655871208406
                          4        0.223754E-02                 -15.655885053552
                          5        0.157183E-02                 -15.655885461027
                          6        0.124953E-02                 -15.655885607150
                          7        0.312011E-06                 -15.655885858066

 Energy components [Hartree]           Total Energy ::          -15.655885858066
                                        Band Energy ::           -2.983128125584
                                     Kinetic Energy ::           11.754765134683
                                   Potential Energy ::          -27.410650992749
                                      Virial (-V/T) ::            2.331875684345
                                        Core Energy ::          -26.153522949072
                                          XC Energy ::           -3.157392363346
                                     Coulomb Energy ::           13.655029454351
                       Total Pseudopotential Energy ::          -37.943026860963
                       Local Pseudopotential Energy ::          -39.220419683052
                    Nonlocal Pseudopotential Energy ::            1.277392822089
                                        Confinement ::            0.347387772086

 Orbital energies  State     L     Occupation   Energy[a.u.]          Energy[eV]

                       1     0          2.000      -0.861522          -23.443215

                       1     1          4.000      -0.315021           -8.572154


 Total Electron Density at R=0:                                         0.000093

 Spin 1
 Re-scaling the density matrix to get the right number of electrons for spin 1
                  # Electrons              Trace(P)               Scaling factor
                          768               768.001                        1.000

 Spin 2
 Re-scaling the density matrix to get the right number of electrons for spin 2
                  # Electrons              Trace(P)               Scaling factor
                          767               768.001                        0.999


 SCF WAVEFUNCTION OPTIMIZATION

  ----------------------------------- OT ---------------------------------------
  Minimizer      : DIIS                : direct inversion
                                         in the iterative subspace
                                         using   7 DIIS vectors
                                         safer DIIS on
  Preconditioner : FULL_SINGLE_INVERSE : inversion of 
                                         H + eS - 2*(Sc)(c^T*H*c+const)(Sc)^T
  Precond_solver : DEFAULT
  stepsize       :    0.08000000                  energy_gap     :    0.08000000
  eps_taylor     :   0.10000E-15                  max_taylor     :             4
  ----------------------------------- OT ---------------------------------------

  Step     Update method      Time    Convergence         Total energy    Change
  ------------------------------------------------------------------------------
     1 OT DIIS     0.80E-01    2.0     0.01005199     -5657.7768679656 -5.66E+03
     2 OT DIIS     0.80E-01    1.5     0.00725679     -5692.7813980405 -3.50E+01
     3 OT DIIS     0.80E-01    1.5     0.00458128     -5725.7375286048 -3.30E+01
     4 OT DIIS     0.80E-01    1.5     0.00364984     -5735.9034796423 -1.02E+01
     5 OT DIIS     0.80E-01    1.5     0.00267039     -5747.3431713459 -1.14E+01
     6 OT DIIS     0.80E-01    1.5     0.00220116     -5754.2553747375 -6.91E+00
     7 OT DIIS     0.80E-01    1.5     0.00184292     -5760.4288966667 -6.17E+00
     8 OT DIIS     0.80E-01    1.5     0.00147577     -5766.3798391333 -5.95E+00
     9 OT DIIS     0.80E-01    1.5     0.00127849     -5769.9904529029 -3.61E+00
    10 OT DIIS     0.80E-01    1.5     0.00099688     -5773.2676798252 -3.28E+00
    11 OT DIIS     0.80E-01    1.5     0.00090982     -5774.0843327502 -8.17E-01
    12 OT DIIS     0.80E-01    1.5     0.00073640     -5775.8998849863 -1.82E+00
    13 OT DIIS     0.80E-01    1.5     0.00060522     -5777.2419897064 -1.34E+00
    14 OT DIIS     0.80E-01    1.5     0.00050129     -5778.1757629955 -9.34E-01
    15 OT DIIS     0.80E-01    1.5     0.00045203     -5778.6590373158 -4.83E-01
    16 OT DIIS     0.80E-01    1.5     0.00038134     -5779.1905191569 -5.31E-01
    17 OT DIIS     0.80E-01    1.5     0.00035449     -5779.4066891086 -2.16E-01
    18 OT DIIS     0.80E-01    1.5     0.00030761     -5779.7348857910 -3.28E-01
    19 OT DIIS     0.80E-01    1.5     0.00026948     -5779.9574963263 -2.23E-01
    20 OT DIIS     0.80E-01    1.5     0.00025589     -5780.0670446824 -1.10E-01
    21 OT DIIS     0.80E-01    1.5     0.00023581     -5780.2507266680 -1.84E-01
    22 OT DIIS     0.80E-01    1.5     0.00021874     -5780.3603213243 -1.10E-01
    23 OT DIIS     0.80E-01    1.5     0.00019629     -5780.5249693796 -1.65E-01
    24 OT DIIS     0.80E-01    1.5     0.00017473     -5780.6279106381 -1.03E-01
    25 OT DIIS     0.80E-01    1.6     0.00017552     -5780.6606194918 -3.27E-02
    26 OT DIIS     0.80E-01    1.5     0.00014537     -5780.7703355910 -1.10E-01
    27 OT DIIS     0.80E-01    1.5     0.00014262     -5780.8063488578 -3.60E-02
    28 OT DIIS     0.80E-01    1.5     0.00013491     -5780.8426335074 -3.63E-02
    29 OT SD       0.80E-01    1.5     0.00013098     -5780.8877205172 -4.51E-02
    30 OT DIIS     0.80E-01    1.5     0.00012650     -5780.8946001817 -6.88E-03
    31 OT DIIS     0.80E-01    1.6     0.00012169     -5780.9407865732 -4.62E-02
    32 OT DIIS     0.80E-01    1.5     0.00010762     -5780.9779744065 -3.72E-02
    33 OT DIIS     0.80E-01    1.5     0.00009730     -5781.0129750944 -3.50E-02
    34 OT DIIS     0.80E-01    1.5     0.00008968     -5781.0461501004 -3.32E-02
    35 OT DIIS     0.80E-01    1.5     0.00008550     -5781.0657727611 -1.96E-02
    36 OT DIIS     0.80E-01    1.5     0.00008019     -5781.0808039802 -1.50E-02
    37 OT DIIS     0.80E-01    1.5     0.00007895     -5781.0930926039 -1.23E-02
    38 OT DIIS     0.80E-01    1.5     0.00007711     -5781.0972956259 -4.20E-03
    39 OT DIIS     0.80E-01    1.5     0.00007429     -5781.1113920214 -1.41E-02
    40 OT DIIS     0.80E-01    1.5     0.00006986     -5781.1334658333 -2.21E-02

  Leaving inner SCF loop after reaching    40 steps.


  Electronic density on regular grids:      -1534.9999999999        0.0000000001
  Core density on regular grids:             1535.9999999995       -0.0000000005
  Total charge density on r-space grids:        0.9999999996
  Total charge density g-space grids:           0.9999999996

  Overlap energy of the core charge distribution:               0.00000000000326
  Self energy of the core charge distribution:             -12156.89556134359555
  Core Hamiltonian energy:                                   3264.04911608488965
  Hartree energy:                                            4026.79863148283266
  Exchange-correlation energy:                               -922.90358348095845

  DFT+U energy:                                                 7.81793142353166

  Total energy:                                             -5781.13346583329803

  outer SCF iter =    1 RMS gradient =   0.70E-04 energy =      -5781.1334658333

  ----------------------------------- OT ---------------------------------------
[...]
  Precond_solver : DEFAULT
  stepsize       :    0.08000000                  energy_gap     :    0.08000000
  eps_taylor     :   0.10000E-15                  max_taylor     :             4
  ----------------------------------- OT ---------------------------------------

  Step     Update method      Time    Convergence         Total energy    Change
  ------------------------------------------------------------------------------
     1 OT DIIS     0.80E-01    3.5     0.00000109     -5780.8823117529 -4.84E-07
     2 OT SD       0.80E-01    1.3     0.00000109     -5780.8823122379 -4.85E-07
     3 OT SD       0.80E-01    1.3     0.00000109     -5780.8823127236 -4.86E-07
     4 OT SD       0.80E-01    1.3     0.00000109     -5780.8823132098 -4.86E-07
     5 OT SD       0.80E-01    1.3     0.00000109     -5780.8823136967 -4.87E-07
     6 OT SD       0.80E-01    1.3     0.00000109     -5780.8823141843 -4.88E-07
     7 OT SD       0.80E-01    1.3     0.00000109     -5780.8823146725 -4.88E-07
     8 OT SD       0.80E-01    1.4     0.00000109     -5780.8823151613 -4.89E-07
     9 OT SD       0.80E-01    1.3     0.00000110     -5780.8823156509 -4.90E-07
    10 OT SD       0.80E-01    1.3     0.00000110     -5780.8823161411 -4.90E-07
    11 OT SD       0.80E-01    1.3     0.00000110     -5780.8823166320 -4.91E-07
    12 OT SD       0.80E-01    1.3     0.00000110     -5780.8823171236 -4.92E-07
    13 OT SD       0.80E-01    1.3     0.00000110     -5780.8823176159 -4.92E-07
    14 OT SD       0.80E-01    1.3     0.00000110     -5780.8823181089 -4.93E-07
    15 OT SD       0.80E-01    1.3     0.00000110     -5780.8823186027 -4.94E-07
    16 OT DIIS     0.80E-01    1.4     0.00000110     -5780.8823190971 -4.94E-07
    17 OT DIIS     0.80E-01    1.3     0.00000113     -5780.8823197066 -6.10E-07
    18 OT DIIS     0.80E-01    1.4     0.00000110     -5780.8823214324 -1.73E-06
    19 OT SD       0.80E-01    1.3     0.00000111     -5780.8823214837 -5.12E-08
    20 OT SD       0.80E-01    1.3     0.00000111     -5780.8823219838 -5.00E-07
    21 OT SD       0.80E-01    1.4     0.00000111     -5780.8823224834 -5.00E-07
    22 OT SD       0.80E-01    1.3     0.00000111     -5780.8823229835 -5.00E-07
    23 OT SD       0.80E-01    1.3     0.00000111     -5780.8823234843 -5.01E-07
    24 OT SD       0.80E-01    1.3     0.00000111     -5780.8823239858 -5.02E-07
    25 OT SD       0.80E-01    1.4     0.00000111     -5780.8823244882 -5.02E-07
    26 OT SD       0.80E-01    1.3     0.00000111     -5780.8823249914 -5.03E-07
    27 OT SD       0.80E-01    1.3     0.00000111     -5780.8823254954 -5.04E-07
    28 OT SD       0.80E-01    1.3     0.00000111     -5780.8823260002 -5.05E-07
    29 OT SD       0.80E-01    1.3     0.00000111     -5780.8823265059 -5.06E-07
    30 OT SD       0.80E-01    1.3     0.00000111     -5780.8823270125 -5.07E-07
    31 OT SD       0.80E-01    1.4     0.00000112     -5780.8823275199 -5.07E-07
    32 OT SD       0.80E-01    1.3     0.00000112     -5780.8823280282 -5.08E-07
    33 OT SD       0.80E-01    1.3     0.00000112     -5780.8823285374 -5.09E-07
    34 OT SD       0.80E-01    1.4     0.00000112     -5780.8823290475 -5.10E-07
    35 OT SD       0.80E-01    1.3     0.00000112     -5780.8823295585 -5.11E-07
    36 OT SD       0.80E-01    1.3     0.00000112     -5780.8823300704 -5.12E-07
    37 OT SD       0.80E-01    1.3     0.00000112     -5780.8823305832 -5.13E-07
    38 OT SD       0.80E-01    1.3     0.00000112     -5780.8823310970 -5.14E-07
    39 OT SD       0.80E-01    1.4     0.00000112     -5780.8823316117 -5.15E-07
    40 OT SD       0.80E-01    1.3     0.00000112     -5780.8823321274 -5.16E-07

  Leaving inner SCF loop after reaching    40 steps.


  Electronic density on regular grids:      -1535.0000000090       -0.0000000090
  Core density on regular grids:             1535.9999999995       -0.0000000005
  Total charge density on r-space grids:        0.9999999905
  Total charge density g-space grids:           0.9999999905

  Overlap energy of the core charge distribution:               0.00000000005976
  Self energy of the core charge distribution:             -12156.89556134359555
  Core Hamiltonian energy:                                   3268.26038897780654
  Hartree energy:                                            4023.80998028630165
  Exchange-correlation energy:                               -923.78785947215886

  DFT+U energy:                                                 7.73071942420843

  Total energy:                                             -5780.88233212737669

  outer SCF iter =    5 RMS gradient =   0.11E-05 energy =      -5780.8823321274

  ----------------------------------- OT ---------------------------------------
  Minimizer      : DIIS                : direct inversion
                                         in the iterative subspace
                                         using   7 DIIS vectors
                                         safer DIIS on
  Preconditioner : FULL_SINGLE_INVERSE : inversion of 
                                         H + eS - 2*(Sc)(c^T*H*c+const)(Sc)^T
  Precond_solver : DEFAULT
  stepsize       :    0.08000000                  energy_gap     :    0.08000000
  eps_taylor     :   0.10000E-15                  max_taylor     :             4
  ----------------------------------- OT ---------------------------------------

  Step     Update method      Time    Convergence         Total energy    Change
  ------------------------------------------------------------------------------
     1 OT DIIS     0.80E-01    3.4     0.00000113     -5780.8823326440 -5.17E-07
     2 OT SD       0.80E-01    1.3     0.00000113     -5780.8823331583 -5.14E-07
     3 OT SD       0.80E-01    1.3     0.00000113     -5780.8823336768 -5.18E-07
     4 OT SD       0.80E-01    1.3     0.00000113     -5780.8823341962 -5.19E-07
     5 OT SD       0.80E-01    1.3     0.00000113     -5780.8823347166 -5.20E-07
     6 OT SD       0.80E-01    1.3     0.00000113     -5780.8823352381 -5.21E-07
     7 OT SD       0.80E-01    1.4     0.00000113     -5780.8823357605 -5.22E-07
     8 OT SD       0.80E-01    1.3     0.00000113     -5780.8823362839 -5.23E-07
     9 OT SD       0.80E-01    1.3     0.00000113     -5780.8823368083 -5.24E-07
    10 OT SD       0.80E-01    1.3     0.00000113     -5780.8823373338 -5.25E-07
    11 OT SD       0.80E-01    1.3     0.00000114     -5780.8823378603 -5.26E-07
    12 OT SD       0.80E-01    1.3     0.00000114     -5780.8823383878 -5.28E-07
    13 OT SD       0.80E-01    1.3     0.00000114     -5780.8823389164 -5.29E-07
    14 OT SD       0.80E-01    1.3     0.00000114     -5780.8823394460 -5.30E-07
    15 OT SD       0.80E-01    1.3     0.00000114     -5780.8823399767 -5.31E-07
    16 OT DIIS     0.80E-01    1.3     0.00000114     -5780.8823405084 -5.32E-07
    17 OT DIIS     0.80E-01    1.3     0.00000115     -5780.8823413028 -7.94E-07
    18 OT SD       0.80E-01    1.3     0.00000117     -5780.8823413281 -2.53E-08
    19 OT SD       0.80E-01    1.3     0.00000115     -5780.8823418808 -5.53E-07
    20 OT SD       0.80E-01    1.5     0.00000115     -5780.8823424247 -5.44E-07
    21 OT SD       0.80E-01    1.3     0.00000115     -5780.8823429683 -5.44E-07
    22 OT SD       0.80E-01    1.3     0.00000115     -5780.8823435126 -5.44E-07
    23 OT SD       0.80E-01    1.3     0.00000116     -5780.8823440579 -5.45E-07
    24 OT SD       0.80E-01    1.3     0.00000116     -5780.8823446042 -5.46E-07
    25 OT SD       0.80E-01    1.3     0.00000116     -5780.8823451515 -5.47E-07
    26 OT SD       0.80E-01    1.3     0.00000116     -5780.8823457000 -5.48E-07
    27 OT SD       0.80E-01    1.3     0.00000116     -5780.8823462495 -5.50E-07
    28 OT SD       0.80E-01    1.4     0.00000116     -5780.8823468002 -5.51E-07
    29 OT SD       0.80E-01    1.4     0.00000116     -5780.8823473520 -5.52E-07
    30 OT SD       0.80E-01    1.3     0.00000116     -5780.8823479049 -5.53E-07
    31 OT SD       0.80E-01    1.3     0.00000117     -5780.8823484590 -5.54E-07
    32 OT SD       0.80E-01    1.3     0.00000117     -5780.8823490143 -5.55E-07
    33 OT SD       0.80E-01    1.4     0.00000117     -5780.8823495707 -5.56E-07
    34 OT SD       0.80E-01    1.3     0.00000117     -5780.8823501284 -5.58E-07
    35 OT SD       0.80E-01    1.3     0.00000117     -5780.8823506872 -5.59E-07
    36 OT SD       0.80E-01    1.3     0.00000117     -5780.8823512472 -5.60E-07
    37 OT SD       0.80E-01    1.3     0.00000117     -5780.8823518084 -5.61E-07
    38 OT SD       0.80E-01    1.3     0.00000117     -5780.8823523709 -5.62E-07
    39 OT SD       0.80E-01    1.3     0.00000118     -5780.8823529346 -5.64E-07
    40 OT SD       0.80E-01    1.3     0.00000118     -5780.8823534995 -5.65E-07

  Leaving inner SCF loop after reaching    40 steps.


  Electronic density on regular grids:      -1535.0000000054       -0.0000000054
  Core density on regular grids:             1535.9999999995       -0.0000000005
  Total charge density on r-space grids:        0.9999999941
  Total charge density g-space grids:           0.9999999941

  Overlap energy of the core charge distribution:               0.00000000005976
  Self energy of the core charge distribution:             -12156.89556134359555
  Core Hamiltonian energy:                                   3268.26192396033775
  Hartree energy:                                            4023.80878123347929
  Exchange-correlation energy:                               -923.78814224519499

  DFT+U energy:                                                 7.73064489545018

  Total energy:                                             -5780.88235349946262

  outer SCF iter =    6 RMS gradient =   0.12E-05 energy =      -5780.8823534995

  ----------------------------------- OT ---------------------------------------
  Minimizer      : DIIS                : direct inversion
                                         in the iterative subspace
                                         using   7 DIIS vectors
                                         safer DIIS on
  Preconditioner : FULL_SINGLE_INVERSE : inversion of 
                                         H + eS - 2*(Sc)(c^T*H*c+const)(Sc)^T
  Precond_solver : DEFAULT
  stepsize       :    0.08000000                  energy_gap     :    0.08000000
  eps_taylor     :   0.10000E-15                  max_taylor     :             4
  ----------------------------------- OT ---------------------------------------

  Step     Update method      Time    Convergence         Total energy    Change
  ------------------------------------------------------------------------------
     1 OT DIIS     0.80E-01    3.4     0.00000118     -5780.8823540656 -5.66E-07
     2 OT SD       0.80E-01    1.4     0.00000118     -5780.8823546337 -5.68E-07
     3 OT SD       0.80E-01    1.3     0.00000118     -5780.8823552022 -5.69E-07
     4 OT SD       0.80E-01    1.3     0.00000118     -5780.8823557720 -5.70E-07
     5 OT SD       0.80E-01    1.5     0.00000118     -5780.8823563431 -5.71E-07
     6 OT SD       0.80E-01    1.3     0.00000118     -5780.8823569155 -5.72E-07
     7 OT SD       0.80E-01    1.3     0.00000119     -5780.8823574891 -5.74E-07
     8 OT SD       0.80E-01    1.3     0.00000119     -5780.8823580640 -5.75E-07
     9 OT SD       0.80E-01    1.3     0.00000119     -5780.8823586403 -5.76E-07
    10 OT SD       0.80E-01    1.3     0.00000119     -5780.8823592178 -5.78E-07
    11 OT SD       0.80E-01    1.3     0.00000119     -5780.8823597966 -5.79E-07
    12 OT SD       0.80E-01    1.3     0.00000119     -5780.8823603768 -5.80E-07
    13 OT SD       0.80E-01    1.3     0.00000119     -5780.8823609583 -5.81E-07
    14 OT SD       0.80E-01    1.3     0.00000120     -5780.8823615411 -5.83E-07
    15 OT DIIS     0.80E-01    1.3     0.00000120     -5780.8823621252 -5.84E-07
    16 OT SD       0.80E-01    1.3     0.00000161     -5780.8823659350 -3.81E-06
    17 OT SD       0.80E-01    1.3     0.00000129     -5780.8823668360 -9.01E-07
    18 OT SD       0.80E-01    1.5     0.00000126     -5780.8823675045 -6.68E-07
    19 OT SD       0.80E-01    1.3     0.00000125     -5780.8823681473 -6.43E-07
    20 OT SD       0.80E-01    1.3     0.00000125     -5780.8823687858 -6.38E-07
    21 OT SD       0.80E-01    1.3     0.00000125     -5780.8823694238 -6.38E-07
    22 OT SD       0.80E-01    1.3     0.00000125     -5780.8823700623 -6.39E-07
    23 OT SD       0.80E-01    1.4     0.00000125     -5780.8823707018 -6.39E-07
    24 OT SD       0.80E-01    1.4     0.00000125     -5780.8823713424 -6.41E-07
    25 OT SD       0.80E-01    1.3     0.00000125     -5780.8823719842 -6.42E-07
    26 OT SD       0.80E-01    1.3     0.00000126     -5780.8823726273 -6.43E-07
    27 OT SD       0.80E-01    1.3     0.00000126     -5780.8823732717 -6.44E-07
    28 OT SD       0.80E-01    1.4     0.00000126     -5780.8823739175 -6.46E-07
    29 OT SD       0.80E-01    1.3     0.00000126     -5780.8823745647 -6.47E-07
    30 OT SD       0.80E-01    1.3     0.00000126     -5780.8823752133 -6.49E-07
    31 OT SD       0.80E-01    1.4     0.00000126     -5780.8823758634 -6.50E-07
    32 OT SD       0.80E-01    1.3     0.00000126     -5780.8823765149 -6.52E-07
    33 OT SD       0.80E-01    1.4     0.00000127     -5780.8823771680 -6.53E-07
    34 OT SD       0.80E-01    1.3     0.00000127     -5780.8823778225 -6.55E-07
    35 OT SD       0.80E-01    1.3     0.00000127     -5780.8823784786 -6.56E-07
    36 OT SD       0.80E-01    1.3     0.00000127     -5780.8823791362 -6.58E-07
    37 OT SD       0.80E-01    1.3     0.00000127     -5780.8823797953 -6.59E-07
    38 OT SD       0.80E-01    1.3     0.00000127     -5780.8823804560 -6.61E-07
    39 OT SD       0.80E-01    1.4     0.00000127     -5780.8823811183 -6.62E-07
    40 OT SD       0.80E-01    1.3     0.00000128     -5780.8823817821 -6.64E-07

  Leaving inner SCF loop after reaching    40 steps.


  Electronic density on regular grids:      -1534.9999999909        0.0000000091
  Core density on regular grids:             1535.9999999995       -0.0000000005
  Total charge density on r-space grids:        1.0000000086
  Total charge density g-space grids:           1.0000000086

  Overlap energy of the core charge distribution:               0.00000000005976
  Self energy of the core charge distribution:             -12156.89556134359555
  Core Hamiltonian energy:                                   3268.26306453356574
  Hartree energy:                                            4023.80789268290027
  Exchange-correlation energy:                               -923.78836629729039

  DFT+U energy:                                                 7.73058864227905

  Total energy:                                             -5780.88238178208030

  outer SCF iter =    7 RMS gradient =   0.13E-05 energy =      -5780.8823817821

  ----------------------------------- OT ---------------------------------------
  Minimizer      : DIIS                : direct inversion
                                         in the iterative subspace
                                         using   7 DIIS vectors
                                         safer DIIS on
  Preconditioner : FULL_SINGLE_INVERSE : inversion of 
                                         H + eS - 2*(Sc)(c^T*H*c+const)(Sc)^T
  Precond_solver : DEFAULT
  stepsize       :    0.08000000                  energy_gap     :    0.08000000
  eps_taylor     :   0.10000E-15                  max_taylor     :             4
  ----------------------------------- OT ---------------------------------------

  Step     Update method      Time    Convergence         Total energy    Change
  ------------------------------------------------------------------------------
     1 OT DIIS     0.80E-01    3.4     0.00000128     -5780.8823824475 -6.65E-07
     2 OT SD       0.80E-01    1.3     0.00000128     -5780.8823831231 -6.76E-07
     3 OT SD       0.80E-01    1.3     0.00000128     -5780.8823837915 -6.68E-07
     4 OT SD       0.80E-01    1.4     0.00000128     -5780.8823844616 -6.70E-07
     5 OT SD       0.80E-01    1.3     0.00000128     -5780.8823851333 -6.72E-07
     6 OT SD       0.80E-01    1.4     0.00000128     -5780.8823858067 -6.73E-07
     7 OT SD       0.80E-01    1.3     0.00000129     -5780.8823864817 -6.75E-07
     8 OT SD       0.80E-01    1.3     0.00000129     -5780.8823871583 -6.77E-07
     9 OT SD       0.80E-01    1.3     0.00000129     -5780.8823878365 -6.78E-07
    10 OT SD       0.80E-01    1.3     0.00000129     -5780.8823885165 -6.80E-07
    11 OT SD       0.80E-01    1.3     0.00000129     -5780.8823891981 -6.82E-07
    12 OT SD       0.80E-01    1.3     0.00000129     -5780.8823898814 -6.83E-07
    13 OT SD       0.80E-01    1.4     0.00000130     -5780.8823905663 -6.85E-07
    14 OT DIIS     0.80E-01    1.3     0.00000130     -5780.8823912530 -6.87E-07
    15 OT DIIS     0.80E-01    1.4     0.00000169     -5780.8823972027 -5.95E-06
    16 OT SD       0.80E-01    1.3     0.00000477     -5780.8824331020 -3.59E-05
    17 OT SD       0.80E-01    1.4     0.00000218     -5780.8824392833 -6.18E-06
    18 OT SD       0.80E-01    1.4     0.00000171     -5780.8824409503 -1.67E-06
    19 OT SD       0.80E-01    1.3     0.00000160     -5780.8824420984 -1.15E-06
    20 OT SD       0.80E-01    1.4     0.00000157     -5780.8824431356 -1.04E-06
    21 OT SD       0.80E-01    1.3     0.00000156     -5780.8824441371 -1.00E-06
    22 OT DIIS     0.80E-01    1.3     0.00000155     -5780.8824451231 -9.86E-07
    23 OT SD       0.80E-01    1.3     0.00000154     -5780.8824496709 -4.55E-06
    24 OT SD       0.80E-01    1.3     0.00000154     -5780.8824506381 -9.67E-07
    25 OT SD       0.80E-01    1.3     0.00000154     -5780.8824516064 -9.68E-07
    26 OT SD       0.80E-01    1.3     0.00000154     -5780.8824525760 -9.70E-07
    27 OT SD       0.80E-01    1.3     0.00000154     -5780.8824535472 -9.71E-07
    28 OT SD       0.80E-01    1.4     0.00000154     -5780.8824545199 -9.73E-07
    29 OT SD       0.80E-01    1.3     0.00000155     -5780.8824554944 -9.74E-07
    30 OT SD       0.80E-01    1.4     0.00000155     -5780.8824564707 -9.76E-07
    31 OT SD       0.80E-01    1.3     0.00000155     -5780.8824574488 -9.78E-07
    32 OT SD       0.80E-01    1.3     0.00000155     -5780.8824584289 -9.80E-07
    33 OT SD       0.80E-01    1.3     0.00000155     -5780.8824594110 -9.82E-07
    34 OT SD       0.80E-01    1.3     0.00000155     -5780.8824603950 -9.84E-07
    35 OT SD       0.80E-01    1.4     0.00000155     -5780.8824613812 -9.86E-07
    36 OT SD       0.80E-01    1.3     0.00000156     -5780.8824623694 -9.88E-07
    37 OT SD       0.80E-01    1.4     0.00000156     -5780.8824633598 -9.90E-07
    38 OT SD       0.80E-01    1.3     0.00000156     -5780.8824643524 -9.93E-07
    39 OT SD       0.80E-01    1.3     0.00000156     -5780.8824653472 -9.95E-07
    40 OT SD       0.80E-01    1.3     0.00000156     -5780.8824663442 -9.97E-07

  Leaving inner SCF loop after reaching    40 steps.


  Electronic density on regular grids:      -1534.9999999869        0.0000000131
  Core density on regular grids:             1535.9999999995       -0.0000000005
  Total charge density on r-space grids:        1.0000000126
  Total charge density g-space grids:           1.0000000126

  Overlap energy of the core charge distribution:               0.00000000005976
  Self energy of the core charge distribution:             -12156.89556134359555
  Core Hamiltonian energy:                                   3268.26533550350450
  Hartree energy:                                            4023.80611170356815
  Exchange-correlation energy:                               -923.78882940128688

  DFT+U energy:                                                 7.73047719358721

  Total energy:                                             -5780.88246634416282
