     192
 i =        6, E =     -5781.4499478942
Ti         0.0007238280        0.0021972652       -0.0000884917
Ti         1.8885560451        1.8885528964        4.8075617165
Ti         0.0011307919        1.8886571048        2.4051875372
Ti         1.8885452716        0.0011180117        7.2096081771
Ti         0.0016430893        3.7760749204        0.0028312538
Ti         1.8886854780       13.2376173685        4.8058426737
Ti        11.3498883612        1.8884126725        2.4069232334
Ti         5.6694384797        0.0010542686        7.2141702507
Ti         1.8884976008        3.7764958399        7.2070359298
Ti         0.0010435127       13.2374559534        2.4072611187
Ti         5.6696347452        1.8887954318        4.8034322633
Ti        11.3499811133        0.0001290340       -0.0015954523
Ti         3.7774984449        0.0003161761       -0.0029318019
Ti        13.2376053008        1.8886829791        4.8092784322
Ti        13.2375178783        0.0010432243        7.2080250976
Ti         3.7764961496        1.8884461755        2.4081889963
Ti         1.8887541372        5.6696435070        4.8116874774
Ti         0.0015393286       11.3485422057        0.0014971297
Ti         0.0010407846        5.6694455040        2.4010465525
Ti         1.8884983623       11.3499170372        7.2082901357
Ti         0.0007793420        7.5700062979        0.0055136640
Ti         1.8885862615        9.4622951051        4.8087786866
Ti         7.5694116799        1.8887470155        2.4104955698
Ti         9.4625101522        0.0011480100        7.2110873447
Ti         1.8886369014        7.5694119354        7.2043079917
Ti         0.0011201255        9.4626155729        2.4038004750
Ti         9.4623521313        1.8885547829        4.8063295026
Ti         7.5688220413        0.0021450952       -0.0056383650
Ti         3.7766196926        3.7777902681       -0.0001475666
Ti        13.2374534521       13.2374496314        4.8075602620
Ti        11.3499492107        5.6696891931        2.4022628040
Ti         5.6695303063       11.3499357421        7.2125347470
Ti        13.2376086513        3.7765896631        7.2051881034
Ti         3.7765796584       13.2376547506        2.4096810654
Ti         5.6695226213        5.6694920350        4.8075475715
Ti        11.3492558422       11.3506372044       -0.0000330374
Ti        11.3500021482       13.2376926588        2.4083676102
Ti         5.6695305371        3.7765983000        7.2113631356
Ti         3.7765131684       11.3505505448       -0.0014422583
Ti        13.2374956178        5.6694673430        4.8133600226
Ti         5.6695235515       13.2374547304        4.8017445990
Ti        11.3491812937        3.7778021621        0.0012641908
Ti        13.2376190951       11.3499908355        7.2064518357
Ti         3.7766166758        5.6696779726        2.4035341753
Ti         3.7772813706        7.5682087733        0.0026532139
Ti        13.2375962681        9.4624645190        4.8104597745
Ti         7.5693336760        5.6694794600        2.4064069175
Ti         9.4624419011       11.3499260463        7.2097018768
Ti        13.2375388015        7.5693645095        7.2027225287
Ti         3.7764763312        9.4624007940        2.4068502852
Ti         9.4623697031        5.6696449257        4.8104756364
Ti         7.5696034380       11.3488017281       -0.0040841179
Ti        11.3499515667        9.4624322804        2.4055312178
Ti         5.6694758915        7.5693035818        7.2087325139
Ti         5.6696366730        9.4623899302        4.8046153081
Ti        11.3500873183        7.5682160377        0.0039985071
Ti         9.4623973914        3.7764637790        7.2084374586
Ti         7.5693717572       13.2374734812        2.4125203134
Ti         7.5695080775        3.7760234111       -0.0027585878
Ti         9.4624661249       13.2376299392        4.8046330744
Ti         7.5688253520        7.5698688864       -0.0000323224
Ti         9.4623258420        9.4622990392        4.8075449626
Ti         7.5694067951        9.4625369326        2.4092773185
Ti         9.4624418777        7.5694049195        7.2056318406
O         0.0007415277        0.0013290653        1.9895167145
O         1.8844117687        1.8876559320        6.8014609711
O         0.0016280928        1.8843038616        4.3969269960
O         1.8877772339        0.0007646715        9.2062092026
O         1.8841962978        0.0016010628        5.2180484154
O         0.0003506497        1.8878791110        0.4097721967
O         1.8877307842        1.8839618445        2.8135381292
O         0.0017100659        0.0001619007        7.6255385100
O         0.0005601404        3.7759772104        1.9873340765
O         1.8843376177       13.2369432538        6.8016540563
O        11.3510521076        1.8844603392        4.3968651111
O         5.6722510106        0.0008474807        9.2062001361
O         1.8844058100        3.7759475893        5.2202324469
O         0.0004040966       13.2368994539        0.4083766428
O         5.6720451936        1.8840744799        2.8127068781
O        11.3511153034        0.0007813896        7.6255357296
O         3.7756947976        0.0008075449        7.6276771253
O        13.2368111662        1.8838338720        2.8133206559
O        13.2368041904        0.0008611795        9.2057997512
O         3.7759796358        1.8845605611        4.3946680568
O         1.8845271623        5.6721628641        6.8023020892
O         0.0005308327       11.3513679476        1.9893998284
O         0.0004035791        5.6722318216        0.4080760175
O         1.8842801207       11.3509946037        5.2180166699
O         0.0007749923        7.5667318594        1.9907084510
O         1.8845722311        9.4627735491        6.7992731250
O         7.5669189013        1.8844815932        4.3977108918
O         9.4625611354        0.0009076881        9.2038027022
O         1.8843812897        7.5668712586        5.2172922088
O         0.0004036717        9.4625130898        0.4121105076
O         9.4628153348        1.8841368673        2.8157392235
O         7.5670497534        0.0002234810        7.6243469292
O         3.7690239149        0.0017358380        1.9900802091
O        13.2380950551        1.8877043461        6.8013273924
O         0.0017016609        5.6559645288        4.3966702006
O         1.8877598666       11.3548890693        9.2057566667
O        13.2378564533        0.0016275793        5.2181104995
O         3.7686360030        1.8878644035        0.4084607583
O         1.8876783173        5.6556460368        2.8137641444
O         0.0015491208       11.3545582173        7.6252781470
O        11.3544027859        1.8878136095        0.4085178067
O         5.6558018064        0.0016673763        5.2182146096
O         5.6561626254        1.8877840072        6.8012204815
O        11.3542951862        0.0017717255        1.9897293238
O         1.8878717620        3.7691917488        9.2058502378
O         0.0016595336       13.2380131513        4.3968330336
O         0.0015330015        3.7692802709        7.6248983200
O         1.8875730759       13.2376032361        2.8136976211
O         3.7695903220        3.7755800557        1.9881632819
O        13.2381515546       13.2368945828        6.8014158177
O        11.3508979230        5.6560752654        4.3965830476
O         5.6721290060       11.3545528705        9.2068529272
O        13.2377452275        3.7759436374        5.2205760719
O         3.7685691515       13.2368791867        0.4093116566
O         5.6722034196        5.6562541662        2.8127080918
O        11.3512583984       11.3539105351        7.6252372484
O        11.3543822601       13.2368403106        0.4095136106
O         5.6562428108        3.7760637546        5.2204769090
O         3.7758776264       11.3537818832        7.6273162221
O        13.2369374473        5.6555399561        2.8136641533
O         5.6559861514       13.2368829037        6.8013418418
O        11.3543289858        3.7755328990        1.9877704259
O        13.2368091779       11.3548697086        9.2064516849
O         3.7760861647        5.6563654872        4.3945581279
O         5.6566384034        5.6721438345        6.8022929442
O        11.3544646912       11.3509043639        1.9898548469
O        13.2367870431        3.7690501025        9.2065982796
O         3.7759930991       13.2378743946        4.3944597971
O        11.3541882306        5.6721441773        0.4090728629
O         5.6559465864       11.3508638297        5.2184217235
O         3.7758916303        3.7690685153        7.6268276143
O        13.2369753208       13.2376907481        2.8135963638
O        13.2378297792       11.3509614944        5.2183522562
O         3.7690375697        5.6721277786        0.4089015285
O         5.6722383701       13.2376491951        2.8128804450
O        11.3512403200        3.7688309295        7.6248569025
O         3.7693609516       11.3508928310        1.9901407737
O        13.2380531186        5.6721805289        6.8021217861
O        11.3509937426       13.2379407289        4.3966601896
O         5.6720887892        3.7694818689        9.2069457143
O         3.7694202291        7.5672304259        1.9911678380
O        13.2380233946        9.4627772253        6.7990655709
O         7.5669212563        5.6565959918        4.3977446901
O         9.4626031555       11.3545739959        9.2034788830
O        13.2377963369        7.5668660738        5.2172823971
O         3.7690313533        9.4626544066        0.4105912634
O         9.4625700277        5.6559576205        2.8157534047
O         7.5669028463       11.3543467684        7.6241860354
O        11.3541706357        9.4627184774        0.4107569879
O         5.6564576677        7.5668822919        5.2171364183
O         5.6564564340        9.4626660769        6.7992621859
O        11.3540781321        7.5672091363        1.9908053039
O         9.4625679408        3.7694273541        9.2036444989
O         7.5669066860       13.2379532675        4.3976467221
O         7.5669511400        3.7696758214        7.6237523853
O         9.4626545042       13.2375421425        2.8159397473
O         7.5830174597        0.0013728995        1.9899829819
O         9.4696216032        1.8876800881        6.8015824113
O         0.0016388096        9.4694890121        4.3971014100
O         1.8878329964        7.5830345407        9.2059340910
O         9.4693464456        0.0015940625        5.2179558896
O         7.5826224977        1.8879080134        0.4099741555
O         1.8877360814        9.4691903388        2.8134006403
O         0.0017247786        7.5825023943        7.6251007941
O         7.5823627153        3.7761151316        1.9879778056
O         9.4696913726       13.2369470478        6.8018269815
O        11.3509911079        9.4694714440        4.3970210281
O         5.6721417677        7.5827093386        9.2063094713
O         9.4690649123        3.7759712227        5.2200315700
O         7.5827448559       13.2369375422        0.4086726917
O         5.6719957903        9.4688543833        2.8124670276
O        11.3509724803        7.5829058514        7.6251470382
O         3.7758705664        7.5826094225        7.6270646938
O        13.2368162965        9.4691842985        2.8132018918
O        13.2368161242        7.5833028151        9.2055972287
O         3.7759988901        9.4692271964        4.3949069412
O         9.4692931478        5.6721266430        6.8025216349
O         7.5826459115       11.3511872999        1.9898127272
O         7.5821370563        5.6721663112        0.4080449127
O         9.4693087650       11.3509685799        5.2179125969
O         7.5824050482        7.5667963983        1.9912635178
O         9.4693639752        9.4627524274        6.7995235247
O         7.5669196239        9.4691215266        4.3979616141
O         9.4625359673        7.5828623229        9.2038825273
O         9.4690133303        7.5669026269        5.2170963811
O         7.5823227842        9.4624690777        0.4119518043
O         9.4628166333        9.4689671381        2.8154772418
O         7.5670670516        7.5819291374        7.6238298380
     192
 i =        7, E =     -5781.4502306163
Ti         0.0011184132        0.0036081056       -0.0000648948
Ti         1.8885867986        1.8887700791        4.8075180738
Ti         0.0013492057        1.8887308325        2.4074792214
Ti         1.8885977924        0.0013085749        7.2070301654
Ti         0.0023014998        3.7770645503        0.0027215852
Ti         1.8888326583       13.2373797092        4.8059242492
Ti        11.3499480321        1.8885231562        2.4091682903
Ti         5.6695340626        0.0012607884        7.2126767899
Ti         1.8885912816        3.7766827711        7.2052020036
Ti         0.0013347543       13.2373536817        2.4101868309
Ti         5.6696930494        1.8887024483        4.8032004899
Ti        11.3491630742        0.0003565338       -0.0014230709
Ti         3.7788834416        0.0005552456       -0.0026932144
Ti        13.2374411434        1.8887403305        4.8091223852
Ti        13.2373300478        0.0013510066        7.2054332621
Ti         3.7766173831        1.8885602231        2.4101589116
Ti         1.8887286486        5.6695904112        4.8118291360
Ti         0.0023813111       11.3470659495        0.0013520848
Ti         0.0012841618        5.6694200855        2.4026502020
Ti         1.8886025752       11.3498494939        7.2061405732
Ti         0.0011491149        7.5692235371        0.0056777360
Ti         1.8885474357        9.4621326530        4.8090812432
Ti         7.5691263968        1.8887456844        2.4121441866
Ti         9.4623041723        0.0012720143        7.2092509271
Ti         1.8885963728        7.5690498277        7.2026009401
Ti         0.0013406802        9.4622340732        2.4055103407
Ti         9.4620109640        1.8886997371        4.8059866057
Ti         7.5679602178        0.0028406420       -0.0056640240
Ti         3.7773141859        3.7787683133       -0.0001153224
Ti        13.2371398152       13.2373756929        4.8075403838
Ti        11.3499478010        5.6696492588        2.4034141422
Ti         5.6694997402       11.3498882126        7.2112469709
Ti        13.2373952169        3.7767014177        7.2031875195
Ti         3.7768409224       13.2374594170        2.4115793098
Ti         5.6695060434        5.6695635670        4.8075155811
Ti        11.3481033588       11.3501130624        0.0000615451
Ti        11.3498430051       13.2374865064        2.4105182919
Ti         5.6694968238        3.7766405039        7.2101736905
Ti         3.7776294954       11.3501457069       -0.0013551417
Ti        13.2372539083        5.6696205966        4.8134035110
Ti         5.6695548108       13.2374232854        4.8016395641
Ti        11.3485621996        3.7790796890        0.0012732429
Ti        13.2373786815       11.3498797915        7.2040247674
Ti         3.7767305188        5.6695880739        2.4045998355
Ti         3.7780690458        7.5676056194        0.0029087229
Ti        13.2374351056        9.4620727676        4.8106544857
Ti         7.5691957751        5.6693924084        2.4074607722
Ti         9.4622607129       11.3498664415        7.2082681683
Ti        13.2373970819        7.5690354648        7.2009939364
Ti         3.7766688428        9.4623101304        2.4081816190
Ti         9.4621916816        5.6695600612        4.8103180926
Ti         7.5689200688       11.3480364239       -0.0043239196
Ti        11.3499336493        9.4623480791        2.4070945452
Ti         5.6695144009        7.5691385823        7.2077750443
Ti         5.6696464699        9.4621317891        4.8047257008
Ti        11.3495881138        7.5674091759        0.0042445738
Ti         9.4621712294        3.7766347445        7.2071453152
Ti         7.5691671354       13.2374092998        2.4143235687
Ti         7.5689187143        3.7767188704       -0.0029385163
Ti         9.4621892975       13.2374066540        4.8044286928
Ti         7.5682914841        7.5693969721        0.0000241972
Ti         9.4620732268        9.4621798288        4.8075390556
Ti         7.5691624875        9.4622253214        2.4102832669
Ti         9.4622876771        7.5691753175        7.2045301613
O         0.0006377222        0.0010988259        1.9883941852
O         1.8840270790        1.8871626771        6.8017121197
O         0.0016301545        1.8845872899        4.3959023567
O         1.8874058650        0.0001512453        9.2101554647
O         1.8845275178        0.0016254037        5.2190803668
O         0.0004577541        1.8878270155        0.4058648036
O         1.8872067415        1.8841667428        2.8132804039
O         0.0016678026        0.0008231000        7.6266525249
O         0.0008257263        3.7754173332        1.9867460646
O         1.8843381725       13.2369546993        6.8019078950
O        11.3513105871        1.8845009348        4.3958897495
O         5.6720808739        0.0005350590        9.2091833245
O         1.8846442227        3.7756424529        5.2212939540
O         0.0002343455       13.2369910156        0.4039371878
O         5.6718206682        1.8843543252        2.8126252513
O        11.3516098277        0.0004109024        7.6263214993
O         3.7751534187        0.0004726417        7.6284381220
O        13.2369505278        1.8840293783        2.8130863656
O        13.2367802741        0.0001231847        9.2099461979
O         3.7756424603        1.8846878513        4.3936846870
O         1.8846371836        5.6719711099        6.8022750546
O         0.0007584005       11.3518467508        1.9885966692
O         0.0003631288        5.6720514873        0.4050873125
O         1.8844867311       11.3513212710        5.2190909324
O         0.0006581408        7.5667129499        1.9906422320
O         1.8842031680        9.4630634073        6.7997347442
O         7.5669225643        1.8847889109        4.3968374506
O         9.4627398045        0.0005552657        9.2075354108
O         1.8847216278        7.5669234878        5.2182722312
O         0.0004328390        9.4625831039        0.4082955898
O         9.4631712180        1.8843661462        2.8152761777
O         7.5673221049        0.0008873143        7.6244989554
O         3.7698040632        0.0016504664        1.9896780476
O        13.2379950694        1.8872117385        6.8017533701
O         0.0016231070        5.6559860877        4.3956174239
O         1.8875092987       11.3549217786        9.2092754131
O        13.2376763081        0.0016243261        5.2190307116
O         3.7682846933        1.8873725208        0.4054173972
O         1.8873160520        5.6555654252        2.8135686088
O         0.0014319811       11.3534607553        7.6262850856
O        11.3547223579        1.8874416834        0.4050088580
O         5.6557951551        0.0016426878        5.2193502237
O         5.6560942814        1.8873179419        6.8013625955
O        11.3538161752        0.0016533430        1.9888065305
O         1.8875063454        3.7686524811        9.2087539827
O         0.0016122485       13.2376709390        4.3960784824
O         0.0014881022        3.7694765847        7.6253856160
O         1.8871760742       13.2376857236        2.8131449530
O         3.7698832153        3.7750687337        1.9878834039
O        13.2376139891       13.2369410243        6.8020308567
O        11.3511949407        5.6562047676        4.3957364510
O         5.6719701005       11.3545805173        9.2095032106
O        13.2377270322        3.7756688879        5.2213649968
O         3.7681654401       13.2369107916        0.4059979904
O         5.6720098239        5.6564222384        2.8126994689
O        11.3517916364       11.3539459355        7.6261158765
O        11.3549714381       13.2368461983        0.4057559568
O         5.6564351431        3.7757319054        5.2212791542
O         3.7753788812       11.3538340346        7.6280868657
O        13.2369372980        5.6554613137        2.8134754148
O         5.6554778422       13.2368698198        6.8015047067
O        11.3535642334        3.7749460065        1.9870425639
O        13.2368829172       11.3552037952        9.2102359960
O         3.7757445214        5.6566133571        4.3937985381
O         5.6564441425        5.6719735348        6.8023083026
O        11.3537427988       11.3513403016        1.9891008557
O        13.2368487925        3.7683349823        9.2096364403
O         3.7756872849       13.2377595250        4.3937095560
O        11.3544116955        5.6721301353        0.4062210701
O         5.6560255123       11.3512159148        5.2193341043
O         3.7754952622        3.7700167539        7.6271126932
O        13.2369956038       13.2377529881        2.8129539687
O        13.2377532316       11.3513048949        5.2190327740
O         3.7691511144        5.6721248182        0.4063322363
O         5.6720731191       13.2376948117        2.8125714798
O        11.3516286601        3.7698401244        7.6251810730
O         3.7696459950       11.3513103271        1.9898541421
O        13.2376005423        5.6719395657        6.8024002058
O        11.3512973137       13.2378063531        4.3959626106
O         5.6717955824        3.7691198721        9.2092147652
O         3.7698709924        7.5673787475        1.9915328955
O        13.2379867044        9.4630965680        6.7997522471
O         7.5669488571        5.6567441199        4.3968324498
O         9.4626086691       11.3545746941        9.2068038281
O        13.2376664683        7.5668921716        5.2182170034
O         3.7686914546        9.4630605889        0.4075208981
O         9.4629779894        5.6560187219        2.8154212106
O         7.5670190799       11.3535466556        7.6241938500
O        11.3547593866        9.4630654062        0.4073156090
O         5.6565781877        7.5669263524        5.2181411381
O         5.6565156383        9.4630072192        6.7995470191
O        11.3538923688        7.5674112006        1.9907890629
O         9.4628306920        3.7689159945        9.2066191354
O         7.5669099763       13.2376678872        4.3967629013
O         7.5670461917        3.7695725295        7.6234908486
O         9.4630065570       13.2376791412        2.8153290911
O         7.5824950865        0.0013254669        1.9895931495
O         9.4693144434        1.8872033130        6.8017342479
O         0.0016221177        9.4694030190        4.3959830923
O         1.8874626593        7.5834603513        9.2088165632
O         9.4693081042        0.0016351541        5.2191000008
O         7.5830650281        1.8876700070        0.4069567255
O         1.8872910222        9.4694774960        2.8132691637
O         0.0016650848        7.5824819200        7.6255566081
O         7.5821363532        3.7755594937        1.9879067364
O         9.4698981394       13.2369023181        6.8019041473
O        11.3512998381        9.4691996770        4.3959096955
O         5.6719217071        7.5826073821        9.2086908874
O         9.4688391347        3.7756455996        5.2211312798
O         7.5833337655       13.2369279812        0.4056258720
O         5.6718377977        9.4689440380        2.8126169160
O        11.3514275585        7.5821900285        7.6252663152
O         3.7753910794        7.5819033770        7.6271846509
O        13.2369002210        9.4695508671        2.8131250574
O        13.2367736499        7.5836661711        9.2086435137
O         3.7756247163        9.4688875594        4.3938055640
O         9.4692698459        5.6719833937        6.8023973538
O         7.5824235463       11.3515495410        1.9897158818
O         7.5822313250        5.6720450547        0.4057959546
O         9.4691388391       11.3512916486        5.2190903592
O         7.5820647874        7.5667444307        1.9916343062
O         9.4690045495        9.4630568151        6.7997703884
O         7.5669385200        9.4689564108        4.3969036204
O         9.4628353250        7.5830095984        9.2067888604
O         9.4688457820        7.5669410967        5.2181934044
O         7.5825089218        9.4627412299        0.4089040653
O         9.4630859198        9.4691086304        2.8152242719
O         7.5672604388        7.5819920542        7.6235144742
     192
 i =        8, E =     -5781.4503129072
Ti         0.0017827389        0.0036597921       -0.0000663817
Ti         1.8887508495        1.8889704236        4.8075156368
Ti         0.0015387410        1.8889361984        2.4086392766
Ti         1.8886458945        0.0015230109        7.2059815180
Ti         0.0024072285        3.7778773585        0.0024175464
Ti         1.8890308764       13.2370684767        4.8060879547
Ti        11.3497367687        1.8887455906        2.4097875769
Ti         5.6695889838        0.0014892399        7.2118604340
Ti         1.8886460668        3.7769101120        7.2047928144
Ti         0.0015285105       13.2372463671        2.4113478688
Ti         5.6697396428        1.8888406699        4.8032822271
Ti        11.3484398211        0.0011035104       -0.0012018439
Ti         3.7793375860        0.0011978892       -0.0024007525
Ti        13.2371436027        1.8889324362        4.8089546350
Ti        13.2370162201        0.0015640864        7.2042225550
Ti         3.7768595908        1.8887498146        2.4104887563
Ti         1.8888729651        5.6696690526        4.8117259793
Ti         0.0026058582       11.3467368247        0.0011283031
Ti         0.0014604418        5.6694943521        2.4034160058
Ti         1.8887034995       11.3496933231        7.2053665194
Ti         0.0016467965        7.5686037058        0.0052981911
Ti         1.8887326748        9.4617920307        4.8089146286
Ti         7.5690513426        1.8888815649        2.4123899046
Ti         9.4620464944        0.0015150951        7.2083042733
Ti         1.8886626937        7.5689746204        7.2024668434
Ti         0.0015112171        9.4619738704        2.4065517033
Ti         9.4617311302        1.8888508500        4.8061292916
Ti         7.5680193359        0.0026389880       -0.0052932141
Ti         3.7777479441        3.7787024299       -0.0000982011
Ti        13.2368203688       13.2370858257        4.8075384675
Ti        11.3498156213        5.6697184911        2.4040183861
Ti         5.6695452542       11.3497952722        7.2107291965
Ti        13.2370942069        3.7769298214        7.2028766445
Ti         3.7770664848       13.2372425919        2.4120985597
Ti         5.6695912310        5.6696578008        4.8075106255
Ti        11.3478137503       11.3492731249        0.0000524397
Ti        11.3496505351       13.2372813195        2.4113579732
Ti         5.6695266233        3.7767888794        7.2098720287
Ti         3.7783126031       11.3494457669       -0.0012806140
Ti        13.2370024544        5.6696817935        4.8131326579
Ti         5.6696772955       13.2371390927        4.8019174518
Ti        11.3484934459        3.7791364569        0.0012054593
Ti        13.2370601803       11.3496994473        7.2032801677
Ti         3.7768732124        5.6696906467        2.4050477364
Ti         3.7781338313        7.5678740545        0.0027610782
Ti        13.2371297206        9.4617283356        4.8103345040
Ti         7.5691428446        5.6695315933        2.4076249426
Ti         9.4619443676       11.3497781109        7.2075441258
Ti        13.2370760867        7.5689505073        7.2008268758
Ti         3.7768259413        9.4621566092        2.4085990441
Ti         9.4619260028        5.6696553984        4.8103872145
Ti         7.5686545422       11.3481752277       -0.0041442187
Ti        11.3498298464        9.4621978245        2.4077346397
Ti         5.6695884233        7.5690620788        7.2075152777
Ti         5.6697236035        9.4618534817        4.8046563057
Ti        11.3492727036        7.5676073711        0.0040636570
Ti         9.4619361189        3.7767994076        7.2067015649
Ti         7.5691084062       13.2372176798        2.4143418896
Ti         7.5687160266        3.7771746098       -0.0028109629
Ti         9.4618349369       13.2370920488        4.8047515258
Ti         7.5684406325        7.5690054562        0.0000215035
Ti         9.4617677424        9.4618924722        4.8075271506
Ti         7.5691045847        9.4619859523        2.4106464334
Ti         9.4620096224        7.5690900581        7.2042484224
O         0.0006239610        0.0012645643        1.9891877062
O         1.8841276186        1.8871716071        6.8010707842
O         0.0015992529        1.8843439466        4.3958635599
O         1.8873297839        0.0000462416        9.2100586459
O         1.8843503117        0.0015795216        5.2192796933
O         0.0003539615        1.8874883082        0.4055689048
O         1.8871986059        1.8840450406        2.8139860172
O         0.0014459080        0.0007770950        7.6257931035
O         0.0007784244        3.7752702133        1.9873108178
O         1.8838523597       13.2368901982        6.8012823587
O        11.3512332389        1.8844239575        4.3955520258
O         5.6721489516        0.0003614065        9.2088820547
O         1.8845783859        3.7756371720        5.2216912814
O         0.0002777355       13.2368539145        0.4039720615
O         5.6718742250        1.8843590265        2.8135554721
O        11.3516287662        0.0006331939        7.6255956464
O         3.7750241651        0.0006875600        7.6278223767
O        13.2369207546        1.8839991538        2.8137363093
O        13.2369014361        0.0001076611        9.2103801435
O         3.7755796624        1.8845621986        4.3932338692
O         1.8842736952        5.6719412243        6.8014040191
O         0.0007465580       11.3518381991        1.9893211600