     192
 i =        6, E =     -5781.4499478942
Ti         0.0003871106        0.0007456875        0.0000245318
Ti         0.0001043142        0.0002059403       -0.0000379267
Ti         0.0002238808        0.0002709730        0.0023077318
Ti         0.0002110309        0.0002359387       -0.0024245834
Ti         0.0004287520        0.0006807317       -0.0000562093
Ti         0.0001671273       -0.0002477936        0.0001045370
Ti        -0.0001011443        0.0002893317        0.0020674101
Ti         0.0001556687        0.0002569958       -0.0016676927
Ti         0.0001921452        0.0002706892       -0.0016932055
Ti         0.0002772800       -0.0001325982        0.0026849481
Ti         0.0001119313        0.0000304346       -0.0001143738
Ti        -0.0005675580        0.0003442118        0.0001441861
Ti         0.0008568267        0.0003628450        0.0001241144
Ti        -0.0001740896        0.0000913502       -0.0001495549
Ti        -0.0002454702        0.0003030263       -0.0025189417
Ti         0.0002537175        0.0002513468        0.0017277826
Ti         0.0000999007        0.0000121578        0.0000700042
Ti         0.0005109896       -0.0008119234       -0.0001352895
Ti         0.0002466811        0.0001570032        0.0016325592
Ti         0.0002533331       -0.0001236498       -0.0021092896
Ti         0.0003701489       -0.0004712874       -0.0000197008
Ti         0.0000759750       -0.0001787580        0.0000650117
Ti        -0.0001824545        0.0001536133        0.0015333693
Ti        -0.0003723833        0.0002102752       -0.0019813356
Ti         0.0001387921       -0.0002146161       -0.0015087085
Ti         0.0002229114       -0.0004223117        0.0019932782
Ti        -0.0002653003        0.0001696490       -0.0001174945
Ti        -0.0004244845        0.0003922065        0.0001045407
Ti         0.0005687845        0.0005811203        0.0000222288
Ti        -0.0002522077       -0.0001338471       -0.0000178091
Ti        -0.0001204798        0.0000784542        0.0013684758
Ti         0.0001122056       -0.0001251663       -0.0013421189
Ti        -0.0002348664        0.0002336922       -0.0017270303
Ti         0.0002724250       -0.0002286267        0.0017771413
Ti         0.0000555413        0.0001053001       -0.0000336206
Ti        -0.0006729418       -0.0005042833        0.0000687182
Ti        -0.0002007596       -0.0002371419        0.0021032379
Ti         0.0000728056        0.0001659437       -0.0011071925
Ti         0.0007591089       -0.0004479136        0.0000055205
Ti        -0.0002109745        0.0001480891       -0.0000597928
Ti         0.0000824644       -0.0001006983        0.0000132708
Ti        -0.0004142722        0.0007237115        0.0000720113
Ti        -0.0002700374       -0.0001753226       -0.0022153315
Ti         0.0001830269        0.0000421704        0.0011586254
Ti         0.0005351231       -0.0003180259        0.0000343739
Ti        -0.0001793081       -0.0003232244       -0.0000615201
Ti        -0.0001047312        0.0001293303        0.0009862403
Ti        -0.0003315396       -0.0001077880       -0.0016841867
Ti        -0.0002050452       -0.0001828215       -0.0015980672
Ti         0.0002537646       -0.0002340819        0.0013966124
Ti        -0.0001814250       -0.0000011407       -0.0000265078
Ti        -0.0003598202       -0.0004402316       -0.0000666644
Ti        -0.0001129018       -0.0002582538        0.0016928631
Ti         0.0001170362       -0.0001103990       -0.0010448444
Ti         0.0000867231       -0.0002590372       -0.0000180249
Ti        -0.0004171799       -0.0004193739        0.0000699766
Ti        -0.0002861728        0.0002474299       -0.0014240601
Ti        -0.0001429823       -0.0001299587        0.0015733515
Ti        -0.0003300897        0.0005460740        0.0000063676
Ti        -0.0002329222       -0.0002452895        0.0000188829
Ti        -0.0002519804       -0.0003395535        0.0000409326
Ti        -0.0002269428       -0.0001501774       -0.0000116765
Ti        -0.0001500809       -0.0003137328        0.0012260243
Ti        -0.0002910084       -0.0001569727       -0.0012010740
O        -0.0000096395       -0.0000804913       -0.0002972821
O        -0.0000360784       -0.0004713573        0.0000421682
O         0.0000226068        0.0000491468       -0.0009136703
O        -0.0007792159       -0.0000747871        0.0015783323
O         0.0000579019        0.0000093421        0.0009974343
O         0.0000263468       -0.0007671729       -0.0016353686
O        -0.0004636951        0.0000484624       -0.0000167244
O         0.0000019310        0.0000989981        0.0002787559
O         0.0000415595       -0.0003173143       -0.0000599621
O         0.0000129429       -0.0000075187       -0.0000044107
O         0.0002852365        0.0000154810       -0.0008519266
O        -0.0002469109       -0.0000389693        0.0012697950
O         0.0000444808       -0.0002135355        0.0007654140
O        -0.0000099297        0.0000864335       -0.0016891597
O        -0.0000923290        0.0000580345        0.0000562331
O         0.0003675074       -0.0000439503        0.0001124143
O        -0.0002789021       -0.0000393111        0.0000878367
O         0.0000327662        0.0000501179        0.0000305083
O         0.0001295882       -0.0000929399        0.0016530735
O        -0.0002192944        0.0000263757       -0.0007670782
O         0.0000253435       -0.0000820144       -0.0000607782
O         0.0000362115        0.0003240156       -0.0001420711
O         0.0000058916       -0.0001600194       -0.0012330391
O         0.0000410697        0.0003061479        0.0008734771
O        -0.0000128729        0.0001122469        0.0000859985
O        -0.0000356361        0.0003275110        0.0000195478
O         0.0000852380        0.0000510557       -0.0006364906
O         0.0006070794       -0.0000437695        0.0014356517
O         0.0000577450        0.0001058779        0.0006947996
O         0.0000157468        0.0007075697       -0.0015269203
O         0.0003058155        0.0000496177       -0.0000012640
O         0.0001607636        0.0000985618       -0.0000944010
O         0.0001113799       -0.0000552763       -0.0001019822
O        -0.0000250538       -0.0004853997        0.0001278110
O         0.0000066569        0.0000036162       -0.0007328144
O        -0.0007653024       -0.0000220220        0.0014244935
O        -0.0000291842       -0.0000154465        0.0009904972
O        -0.0000174999       -0.0006884676       -0.0011488547
O        -0.0003383619        0.0000055699        0.0000013153
O        -0.0000190754       -0.0001538662        0.0002752416
O         0.0000249792       -0.0007057214       -0.0013643780
O         0.0000047450        0.0000039663        0.0007506389
O        -0.0000065454       -0.0003852632        0.0000077462
O        -0.0000711714       -0.0000777303       -0.0002518430
O        -0.0006408590       -0.0000547670        0.0011396661
O        -0.0000027738       -0.0000537028       -0.0010207404
O         0.0000182958        0.0000327596        0.0000928604
O        -0.0004623639        0.0000101395       -0.0001438071
O         0.0000449310       -0.0002173152        0.0000263566
O        -0.0000809809       -0.0000133944        0.0001223038
O         0.0002815937        0.0000205456       -0.0005608921
O        -0.0002051527       -0.0000186315        0.0010607605
O        -0.0000069081       -0.0002042060        0.0007518214
O        -0.0000262263        0.0000907710       -0.0012559735
O        -0.0001167914        0.0000320459        0.0000849225
O         0.0003730360        0.0000016683        0.0001293678
O         0.0000614422        0.0001115434       -0.0014780787
O         0.0000291572       -0.0001663377        0.0005391159
O        -0.0002668404        0.0000039739        0.0000938042
O        -0.0000486866        0.0000014225        0.0000553768
O        -0.0000634666       -0.0000350792       -0.0000460000
O        -0.0001120571       -0.0002672529       -0.0001124783
O         0.0001729498        0.0000176841        0.0014270467
O        -0.0001765382        0.0000337200       -0.0005021214
O        -0.0000232984       -0.0000780949       -0.0000622093
O        -0.0001061358        0.0003370814       -0.0001404515
O         0.0000507103       -0.0000766296        0.0011058122
O        -0.0002253534       -0.0000221794       -0.0007108896
O         0.0000149166       -0.0001335751       -0.0011653916
O         0.0000167610        0.0002838341        0.0006138457
O        -0.0002073405        0.0001395937       -0.0000409529
O         0.0000174746        0.0000048792       -0.0001183378
O        -0.0000152876        0.0003407421        0.0008541520
O         0.0000376127       -0.0000994177       -0.0010006116
O        -0.0001336542        0.0000044383       -0.0000417340
O         0.0002979037        0.0001481362       -0.0000196498
O         0.0000444277        0.0003196422        0.0000097438
O        -0.0000674211       -0.0001002370        0.0000498476
O         0.0003479814       -0.0000254211       -0.0007754349
O        -0.0001908850       -0.0000328980        0.0008664141
O         0.0000698277        0.0000952026        0.0001971064
O        -0.0000162072        0.0003603174        0.0001220173
O         0.0000647396        0.0000206111       -0.0005002129
O         0.0005362760       -0.0000218932        0.0012753915
O        -0.0000208281        0.0000935964        0.0007016266
O        -0.0000214899        0.0005349010       -0.0010708496
O         0.0003046383        0.0000205908        0.0000331131
O         0.0001172807       -0.0001165785       -0.0000966570
O         0.0000621569        0.0006015093       -0.0012645176
O         0.0000208559        0.0000810234        0.0005292900
O         0.0000072225        0.0002721640       -0.0000314412
O        -0.0000332261        0.0001066470        0.0000867350
O         0.0005034861       -0.0000533382        0.0010780673
O         0.0000709173       -0.0000444647       -0.0006952225
O         0.0001145962       -0.0000056456       -0.0001933258
O         0.0003638557        0.0000176266       -0.0000937050
O        -0.0000648887        0.0000179914       -0.0000401770
O        -0.0000621251       -0.0004196860        0.0000359854
O         0.0000298841       -0.0000292018       -0.0008210940
O        -0.0005729827        0.0000481438        0.0010408124
O        -0.0000194652        0.0000388222        0.0008618966
O         0.0000613389       -0.0005643758       -0.0011416817
O        -0.0004374529        0.0000224777       -0.0000150956
O         0.0000039733        0.0000112276        0.0000248353
O        -0.0000240520       -0.0002789551        0.0001181877
O         0.0000023616       -0.0000239411       -0.0000317007
O         0.0002911532       -0.0000545164       -0.0007446205
O        -0.0001970999       -0.0000236768        0.0008714218
O        -0.0000421215       -0.0001959531        0.0006726965
O         0.0000833117        0.0000333969       -0.0010422903
O        -0.0000832412        0.0000020342        0.0000882295
O         0.0003214144       -0.0000918991       -0.0001180176
O        -0.0002220390       -0.0000901261       -0.0001183559
O         0.0000291113        0.0000354367        0.0000443931
O         0.0000298506        0.0000410474        0.0010880225
O        -0.0002065746       -0.0000606359       -0.0006724244
O        -0.0000232226       -0.0000890711       -0.0000638193
O        -0.0000235885        0.0002476001        0.0001104436
O         0.0000150461       -0.0001330178       -0.0008112475
O        -0.0000378005        0.0002854454        0.0007480302
O        -0.0000457412        0.0000864157        0.0002396675
O        -0.0000658288        0.0002861647       -0.0000149304
O         0.0000793105       -0.0000365664       -0.0005731301
O         0.0004784079        0.0000109623        0.0009659091
O        -0.0000340243        0.0000901674        0.0006096331
O         0.0000298612        0.0005137193       -0.0010507498
O         0.0002589161        0.0000065114        0.0000210281
O         0.0001192846        0.0000171702       -0.0002552059
     192
 i =        7, E =     -5781.4502306163
Ti         0.0006002439        0.0001594163        0.0000293017
Ti         0.0001390200        0.0001753861       -0.0000399586
Ti         0.0001653671        0.0001256068        0.0006886046
Ti         0.0001484550        0.0002072810       -0.0004617433
Ti         0.0000825504        0.0008765705       -0.0001512055
Ti         0.0001911531       -0.0002209119        0.0001097995
Ti        -0.0001052130        0.0001549523        0.0000536682
Ti         0.0000962803        0.0001860535       -0.0002011785
Ti         0.0000719484        0.0001733917        0.0000077381
Ti         0.0001859693       -0.0001429684        0.0005999009
Ti         0.0000571973        0.0000871139       -0.0000251781
Ti        -0.0007683948        0.0008401678        0.0001525540
Ti         0.0003001521        0.0007261940        0.0001593963
Ti        -0.0001979199        0.0001583118       -0.0001541127
Ti        -0.0001761012        0.0002276586       -0.0008035571
Ti         0.0001564088        0.0001018351       -0.0002277749
Ti         0.0001082228        0.0000268150       -0.0000426182
Ti         0.0001889830       -0.0001698100       -0.0001397154
Ti         0.0001641046        0.0000374382       -0.0000267750
Ti         0.0001464221       -0.0000876768       -0.0003530970
Ti         0.0004384581       -0.0006015243       -0.0002139396
Ti         0.0001442072       -0.0002383046        0.0000016566
Ti        -0.0000483786       -0.0000018186       -0.0000973936
Ti        -0.0001917397        0.0001874086       -0.0002148863
Ti         0.0000622901       -0.0000585235        0.0003581410
Ti         0.0001532438       -0.0002709343        0.0004719803
Ti        -0.0001935952        0.0001247455       -0.0000372783
Ti         0.0000048798       -0.0001239774        0.0002564075
Ti         0.0003786962       -0.0001080448        0.0000546798
Ti        -0.0002463975       -0.0001882596       -0.0000008402
Ti        -0.0000628073       -0.0000425818        0.0000725617
Ti         0.0000830693       -0.0000407680        0.0001643345
Ti        -0.0001670236        0.0001806112        0.0001598454
Ti         0.0001781586       -0.0001895154        0.0001428258
Ti         0.0000526933        0.0000474533       -0.0000197407
Ti        -0.0003251021       -0.0008084284        0.0000075355
Ti        -0.0001537298       -0.0002009245        0.0005244744
Ti         0.0000445025        0.0001179804        0.0003023025
Ti         0.0006142353       -0.0006615937        0.0000330857
Ti        -0.0001868419        0.0000480082       -0.0001551353
Ti         0.0000967523       -0.0001868490        0.0001339075
Ti        -0.0000778762        0.0000055318        0.0000263014
Ti        -0.0001914454       -0.0001128283       -0.0003111157
Ti         0.0000912676       -0.0000255863       -0.0000745998
Ti        -0.0000109000        0.0003111790       -0.0000749699
Ti        -0.0002030777       -0.0002723139       -0.0001197932
Ti        -0.0000193207        0.0000406527       -0.0004803307
Ti        -0.0001789227       -0.0000494520       -0.0001302534
Ti        -0.0001556830       -0.0000662957        0.0001923643
Ti         0.0001369270       -0.0001398294       -0.0003360268
Ti        -0.0001693991        0.0000391193       -0.0000282371
Ti        -0.0003397867        0.0002099034        0.0001020242
Ti        -0.0000820246       -0.0001819906       -0.0001026000
Ti         0.0000489085       -0.0000189156        0.0002780676
Ti         0.0000658850       -0.0002025505        0.0000079665
Ti        -0.0003856769        0.0002402940       -0.0000841221
Ti        -0.0000835683        0.0001368980        0.0000976234
Ti        -0.0000523843       -0.0001531811       -0.0004792781
Ti        -0.0002447752        0.0005397418        0.0000792895
Ti        -0.0002340426       -0.0002198219        0.0001197136
Ti         0.0001078206       -0.0003731722        0.0000103691
Ti        -0.0001990420       -0.0001962012        0.0000014941
Ti        -0.0000477487       -0.0001511336       -0.0001829577
Ti        -0.0001188108       -0.0000445554        0.0003854674
O        -0.0000015094        0.0001505421        0.0004159998
O         0.0000283914       -0.0002018362       -0.0003630966
O         0.0000018553       -0.0000415601       -0.0003848490
O        -0.0005381181       -0.0000136092        0.0000239366
O        -0.0000281520       -0.0000200344        0.0003979472
O        -0.0000141954       -0.0007182089       -0.0001890072
O        -0.0002464592       -0.0000125647        0.0004083057
O        -0.0001030003       -0.0000042673       -0.0004527784
O        -0.0000061390       -0.0001873054        0.0004549832
O        -0.0000849764       -0.0000686653       -0.0004366502
O         0.0001736110       -0.0000098651       -0.0002604823
O        -0.0001351953       -0.0000303424       -0.0001045638
O        -0.0000072122       -0.0001178498        0.0002425576
O         0.0000152382       -0.0000084060       -0.0000257103
O        -0.0000038968        0.0000103467        0.0004697224
O         0.0001921344        0.0000438831       -0.0004922064
O        -0.0001155311        0.0000426895       -0.0004680986
O         0.0000462631        0.0000057297        0.0004608165
O         0.0001762657        0.0000028716        0.0002042435
O        -0.0001452788       -0.0000198063       -0.0002047589
O        -0.0000637287       -0.0001159576       -0.0004263080
O         0.0000005631        0.0000952700        0.0004713295
O         0.0000180519       -0.0001474838        0.0002466546
O        -0.0000043385        0.0001825352        0.0003115961
O        -0.0000015695        0.0002259140        0.0004929917
O         0.0000239243        0.0001891160       -0.0004880321
O         0.0000702266       -0.0000501919       -0.0001793448
O         0.0005109143       -0.0000401980       -0.0001161574
O        -0.0000430763        0.0001258205        0.0001384155
O         0.0000007507        0.0005141622       -0.0000416381
O         0.0000573489       -0.0000066391        0.0005188563
O        -0.0000036553       -0.0000304416       -0.0005182376
O        -0.0000019261       -0.0000865218        0.0004803609
O        -0.0000336537       -0.0002956330       -0.0003316734
O         0.0000253180        0.0000048135       -0.0001460028
O        -0.0005517517        0.0000229785        0.0000423594
O         0.0000496286       -0.0000281252        0.0004715193
O         0.0000176661       -0.0004160633        0.0002934436
O        -0.0000663143        0.0000230558        0.0003729734
O         0.0000339237        0.0000633828       -0.0004318284
O         0.0000718234       -0.0005641781        0.0001291473
O         0.0000223918        0.0000156569        0.0001875298
O        -0.0000799686       -0.0001811228       -0.0003424084
O         0.0000272356       -0.0001088099        0.0004280806
O        -0.0003358918       -0.0000234680       -0.0001635138
O        -0.0000011662        0.0000442280       -0.0004894026
O         0.0000516687        0.0000260946       -0.0005059564
O        -0.0001865546        0.0000540003        0.0003625349
O        -0.0000036458        0.0000940227        0.0004427407
O         0.0000819030       -0.0000152090       -0.0004134246
O         0.0001423133       -0.0000128527       -0.0001241501
O        -0.0001199648       -0.0000160098       -0.0002845237
O         0.0000155007       -0.0001395700        0.0002505264
O         0.0000053717        0.0000066927        0.0001348057
O        -0.0001341161        0.0000039782        0.0004178761
O         0.0000708840       -0.0000107943       -0.0004967091
O         0.0000436967        0.0000389521       -0.0001067412
O        -0.0000095887       -0.0000742968        0.0000909820
O        -0.0001881567       -0.0000009446       -0.0004720979
O        -0.0001113708        0.0000074156        0.0004391594
O        -0.0000033659       -0.0000065410       -0.0004199127
O         0.0000377298        0.0000795125        0.0004192049
O         0.0001647132        0.0000040634       -0.0000356283
O        -0.0000965937       -0.0000213619       -0.0001222471
O         0.0000026220       -0.0000677514       -0.0003956098
O         0.0000045693        0.0003086256        0.0004792855
O         0.0000569266       -0.0000373467       -0.0002857625
O        -0.0001775975        0.0000111386       -0.0002929758
O         0.0000264106       -0.0001197168        0.0001517996
O        -0.0000080973        0.0001451648        0.0000902963
O        -0.0001385776       -0.0000099672       -0.0004966708
O        -0.0000461941        0.0000424870        0.0004157421
O         0.0000169031        0.0002077459        0.0003670467
O         0.0000195732       -0.0001158994        0.0002726317
O        -0.0001747663        0.0000325428        0.0004312469
O         0.0000313276       -0.0000072253       -0.0005424516
O         0.0000092866        0.0002673667        0.0005274353
O         0.0000541790       -0.0000619927       -0.0004184267
O         0.0002089585        0.0000054664       -0.0003620185
O        -0.0000592936       -0.0000030415       -0.0003779917
O         0.0000007735        0.0000131107        0.0004484387
O        -0.0000402018        0.0001662648       -0.0004577136
O         0.0000628967       -0.0000216045       -0.0000145732
O         0.0004780155       -0.0000062990       -0.0001065549
O         0.0000381128        0.0001243213        0.0001842890
O         0.0000494323        0.0002521787        0.0004258946
O         0.0001525060        0.0000197087        0.0004551558
O         0.0000696004        0.0000453802       -0.0004794808
O         0.0000104933        0.0003699796        0.0002637915
O        -0.0000023118        0.0000995233        0.0000573380
O        -0.0000747880        0.0000451133       -0.0004397135
O         0.0000019563        0.0000332367        0.0004566306
O         0.0002713821        0.0000050115       -0.0002591366
O         0.0000720210        0.0000379056       -0.0001381534
O         0.0000508851        0.0000356127       -0.0004541926
O         0.0002801434        0.0000420591        0.0004564840
O        -0.0000598190        0.0001856230        0.0004827001
O         0.0000452449       -0.0001453392       -0.0003433816
O         0.0000112339       -0.0000250169       -0.0002645535
O        -0.0002811699       -0.0000436909       -0.0002976569
O        -0.0000141020        0.0000049085        0.0002319846
O         0.0000166014       -0.0003533803        0.0001419305
O        -0.0002630839        0.0000236878        0.0003448157
O        -0.0000439144       -0.0000407961       -0.0005178203
O        -0.0000300084       -0.0000965776        0.0004531856
O        -0.0000618529       -0.0000499437       -0.0004072811
O         0.0001488377        0.0000038568       -0.0001285855
O        -0.0000688228       -0.0000520342       -0.0003322557
O         0.0000223618       -0.0000921697        0.0001423668
O         0.0000304659       -0.0000207898        0.0003873294
O        -0.0000134883        0.0000302232        0.0003881754
O         0.0001099446       -0.0000339189       -0.0005294445
O        -0.0000278428       -0.0000270736       -0.0004789776
O         0.0000716347        0.0000383603        0.0004059680
O         0.0000606488       -0.0000257213       -0.0002203281
O        -0.0001239105        0.0000222618       -0.0000936924
O        -0.0000516569       -0.0001244597       -0.0003785074
O        -0.0000325786        0.0000130003        0.0005282990
O        -0.0000050413       -0.0001372423        0.0004272556
O         0.0000147404        0.0001499135        0.0001521634
O        -0.0000434333        0.0001733494        0.0004346428
O         0.0000462513        0.0001360993       -0.0004407929
O         0.0000696211        0.0000014277       -0.0000760103
O         0.0002627844       -0.0000437406       -0.0003853276
O         0.0000201273        0.0001107978        0.0000388853
O         0.0000091708        0.0001991932        0.0002813989
O         0.0000744706        0.0000244803        0.0004346366
O        -0.0000142551       -0.0000214866       -0.0004519267
     192
 i =        8, E =     -5781.4503129072
Ti         0.0009473585        0.0002751291        0.0000435499
Ti         0.0002160050        0.0001947424       -0.0000216394
Ti         0.0001638756        0.0001798428        0.0007528423
Ti         0.0002509721        0.0001892823       -0.0004706683
Ti         0.0000212359        0.0012648622       -0.0001623992
Ti         0.0002701580       -0.0001994422        0.0000942412
Ti        -0.0001476425        0.0001708237        0.0000168275
Ti         0.0001069514        0.0001262484        0.0000775598
Ti         0.0000220267        0.0002348329        0.0001131591
Ti         0.0002394678       -0.0001868601        0.0008645009
Ti         0.0000535835        0.0000390469       -0.0000420058
Ti        -0.0013356022        0.0010043479        0.0001563123
Ti         0.0005963898        0.0006012906        0.0001385742
Ti        -0.0002021112        0.0002658517       -0.0001314520
Ti        -0.0001564495        0.0002500032       -0.0011828523
Ti         0.0002123612        0.0000248562       -0.0003174396
Ti         0.0000492691        0.0000477547       -0.0000001008
Ti         0.0003103968       -0.0006075439       -0.0001106207
Ti         0.0001179766        0.0000926787       -0.0003301111
Ti         0.0001438636       -0.0001298152       -0.0003111513
Ti         0.0002648185       -0.0006814600       -0.0001784567
Ti         0.0001342126       -0.0002839204        0.0000568971
Ti        -0.0000725307       -0.0001175070       -0.0002346415
Ti        -0.0003225537        0.0001593795        0.0000264052
Ti        -0.0000413897       -0.0000723986        0.0004804488
Ti         0.0001383728       -0.0003268645        0.0002364270
Ti        -0.0002471341        0.0001140892       -0.0000664436
Ti        -0.0000820646       -0.0002719905        0.0001999459
Ti         0.0002776556       -0.0001216520        0.0000588053
Ti        -0.0002083587       -0.0002160555       -0.0000005846
Ti         0.0000112457       -0.0000018253       -0.0001304878
Ti         0.0000747962        0.0000035738        0.0003581480
Ti        -0.0001168599        0.0003083889        0.0002642444
Ti         0.0002827307       -0.0001258943       -0.0000018101
Ti         0.0000222115        0.0000004445       -0.0000043873
Ti        -0.0005453379       -0.0011106275       -0.0000266791
Ti        -0.0002497814       -0.0001710663        0.0006965431
Ti         0.0000005354        0.0000756367        0.0003228701
Ti         0.0007562211       -0.0005494020        0.0000434687
Ti        -0.0001211399        0.0000767494       -0.0000914788
Ti         0.0001184953       -0.0001309216        0.0000683382
Ti         0.0000045679        0.0001767337        0.0000128427
Ti        -0.0001450766       -0.0002377831       -0.0004316531
Ti         0.0000354670       -0.0000207256       -0.0001932942
Ti        -0.0001572700        0.0003071270       -0.0000515266
Ti        -0.0001615540       -0.0003657355       -0.0000410125
Ti        -0.0000022869       -0.0000126390       -0.0004196235
Ti        -0.0002192297       -0.0000481715        0.0000619282
Ti        -0.0000697388       -0.0001061857        0.0004270523
Ti         0.0001390929       -0.0001084187       -0.0004666078
Ti        -0.0001313976        0.0000109764       -0.0000352312
Ti        -0.0003733480        0.0003929994        0.0001126144
Ti        -0.0000806772       -0.0002550384       -0.0002896249
Ti        -0.0000360459        0.0000199526        0.0003102841
Ti         0.0000223633       -0.0001479230        0.0000343281
Ti        -0.0000932020        0.0001949929       -0.0000504279
Ti        -0.0000445856        0.0001315157        0.0002143785
Ti        -0.0001270223       -0.0000994724       -0.0006836645
Ti        -0.0001603983        0.0002842537        0.0000506892
Ti        -0.0003613951       -0.0001637171        0.0000601489
Ti         0.0001384209       -0.0001749955       -0.0000029503
Ti        -0.0001719059       -0.0001974416       -0.0000000980
Ti        -0.0000465079       -0.0000141656       -0.0003294289
Ti        -0.0000201540       -0.0000274628        0.0004558705
O        -0.0000068358        0.0000187836        0.0001162393
O        -0.0000089609       -0.0002491812       -0.0001634284
O        -0.0000099984        0.0000188564       -0.0003376736
O        -0.0007155173       -0.0000217216        0.0001364819
O         0.0000129429       -0.0000020223        0.0002961742
O        -0.0000419981       -0.0007679979       -0.0002605311
O        -0.0003071840        0.0000256997        0.0001740284
O        -0.0001552176        0.0000222586       -0.0001334402
O         0.0000123764       -0.0003601790        0.0003113490
O         0.0000178175       -0.0000257220       -0.0002368511
O         0.0002496565        0.0000051530       -0.0000845482
O        -0.0002110517        0.0000210207       -0.0001360367
O         0.0000121943       -0.0001684394        0.0000367669
O        -0.0000895298        0.0001879934       -0.0002583277
O        -0.0000402448        0.0000485340        0.0002063471
O         0.0004469271       -0.0000227996       -0.0002535818
O        -0.0002215564       -0.0000057493       -0.0003240139
O         0.0000683711        0.0000074009        0.0002560943
O         0.0001852700       -0.0000906083        0.0003744467
O        -0.0001684588        0.0000174993        0.0000073575
O         0.0000429559       -0.0001228898       -0.0001839793
O        -0.0000005724        0.0002796967        0.0002670490