 DBCSR| CPU Multiplication driver                                           XSMM (U)
 DBCSR| Multrec recursion limit                                              512 (U)
 DBCSR| Multiplication stack size                                           1000 (D)
 DBCSR| Maximum elements for images                                    UNLIMITED (U)
 DBCSR| Multiplicative factor virtual images                                   1 (U)
 DBCSR| Use multiplication densification                                       T (D)
 DBCSR| Multiplication size stacks                                             3 (U)
 DBCSR| Use memory pool for CPU allocation                                     F (U)
 DBCSR| Number of 3D layers                                               SINGLE (U)
 DBCSR| Use MPI memory allocation                                              F (U)
 DBCSR| Use RMA algorithm                                                      F (U)
 DBCSR| Use Communication thread                                               T (U)
 DBCSR| Communication thread load                                             87 (D)
 DBCSR| MPI: My process id                                                     0
 DBCSR| MPI: Number of processes                                             128
 DBCSR| OMP: Current number of threads                                         1
 DBCSR| OMP: Max number of threads                                             1
 DBCSR| Split modifier for TAS multiplication algorithm                  1.0E+00 (U)


  **** **** ******  **  PROGRAM STARTED AT               2025-06-16 15:38:20.011
 ***** ** ***  *** **   PROGRAM STARTED ON                             nid006738
 **    ****   ******    PROGRAM STARTED BY                                cahart
 ***** **    ** ** **   PROGRAM PROCESS ID                                 67100
  **** **  *******  **  PROGRAM STARTED IN /mnt/lustre/a2fs-work2/work/e05/e05/c
                                           ahart/postdoc2/work/group/tio2/anatas
                                           e/cell-441/geo-opt/mp-390/hole/from-n
                                           eutral/pbe-u-o/u-4.5

 CP2K| version string:                                       CP2K version 2024.3
 CP2K| source code revision number:                                  git:6712648
 CP2K| cp2kflags: omp libint fftw3 libxc libgrpp elpa parallel scalapack cosma x
 CP2K|            smm plumed2 spglib mkl sirius libvori libbqb libvdwxc hdf5
 CP2K| is freely available from                            https://www.cp2k.org/
 CP2K| Program compiled at                       Thu 12 Sep 2024 10:20:47 AM BST
 CP2K| Program compiled on                                                  ln04
 CP2K| Program compiled for                                                local
 CP2K| Data directory path    /mnt/lustre/a2fs-work1/work/y07/shared/apps/core/c
 CP2K| Input file name                                                 input.inp

 GLOBAL| Force Environment number                                              1
 GLOBAL| Basis set file name                                        BASIS_MOLOPT
 GLOBAL| Potential file name                                      GTH_POTENTIALS
 GLOBAL| MM Potential file name                                     MM_POTENTIAL
 GLOBAL| Coordinate file name                                         system.xyz
 GLOBAL| Method name                                                        CP2K
 GLOBAL| Project name                                                       tio2
 GLOBAL| Run type                                                        GEO_OPT
 GLOBAL| FFT library                                                       FFTW3
 GLOBAL| Diagonalization library                                            ELPA
 GLOBAL| DGEMM library                                                      BLAS
 GLOBAL| Minimum number of eigenvectors for ELPA usage                        16
 GLOBAL| Orthonormality check for eigenvectors                          DISABLED
 GLOBAL| Matrix multiplication library                                     COSMA
 GLOBAL| All-to-all communication in single precision                          F
 GLOBAL| FFTs using library dependent lengths                                  F
 GLOBAL| Grid backend                                                       AUTO
 GLOBAL| Global print level                                               MEDIUM
 GLOBAL| MPI I/O enabled                                                       T
 GLOBAL| Total number of message passing processes                           128
 GLOBAL| Number of threads for this process                                    1
 GLOBAL| This output is from process                                           0
 GLOBAL| Stack size for threads created by OpenMP (OMP_STACKSIZE)        default
 GLOBAL| CPU model name                          AMD EPYC 7742 64-Core Processor
 GLOBAL| CPUID                                                              1002

 MEMORY| system memory details [Kb]
 MEMORY|                        rank 0           min           max       average
 MEMORY| MemTotal            263341712     263341712     263341712     263341712
 MEMORY| MemFree             234626168     234626168     234626168     234626168
 MEMORY| Buffers                     0             0             0             0
 MEMORY| Cached                1855028       1855028       1855028       1855028
 MEMORY| Slab                  6030752       6030752       6030752       6030752
 MEMORY| SReclaimable           905932        905932        905932        905932
 MEMORY| MemLikelyFree       237387128     237387128     237387128     237387128


 *** Fundamental physical constants (SI units) ***

 *** Literature: B. J. Mohr and B. N. Taylor,
 ***             CODATA recommended values of the fundamental physical
 ***             constants: 2006, Web Version 5.1
 ***             http://physics.nist.gov/constants

 Speed of light in vacuum [m/s]                             2.99792458000000E+08
 Magnetic constant or permeability of vacuum [N/A**2]       1.25663706143592E-06
 Electric constant or permittivity of vacuum [F/m]          8.85418781762039E-12
 Planck constant (h) [J*s]                                  6.62606896000000E-34
 Planck constant (h-bar) [J*s]                              1.05457162825177E-34
 Elementary charge [C]                                      1.60217648700000E-19
 Electron mass [kg]                                         9.10938215000000E-31
 Electron g factor [ ]                                     -2.00231930436220E+00
 Proton mass [kg]                                           1.67262163700000E-27
 Fine-structure constant                                    7.29735253760000E-03
 Rydberg constant [1/m]                                     1.09737315685270E+07
 Avogadro constant [1/mol]                                  6.02214179000000E+23
 Boltzmann constant [J/K]                                   1.38065040000000E-23
 Atomic mass unit [kg]                                      1.66053878200000E-27
 Bohr radius [m]                                            5.29177208590000E-11

 *** Conversion factors ***

 [u] -> [a.u.]                                              1.82288848426455E+03
 [Angstrom] -> [Bohr] = [a.u.]                              1.88972613288564E+00
 [a.u.] = [Bohr] -> [Angstrom]                              5.29177208590000E-01
 [a.u.] -> [s]                                              2.41888432650478E-17
 [a.u.] -> [fs]                                             2.41888432650478E-02
 [a.u.] -> [J]                                              4.35974393937059E-18
 [a.u.] -> [N]                                              8.23872205491840E-08
 [a.u.] -> [K]                                              3.15774647902944E+05
 [a.u.] -> [kJ/mol]                                         2.62549961709828E+03
 [a.u.] -> [kcal/mol]                                       6.27509468713739E+02
 [a.u.] -> [Pa]                                             2.94210107994716E+13
 [a.u.] -> [bar]                                            2.94210107994716E+08
 [a.u.] -> [atm]                                            2.90362800883016E+08
 [a.u.] -> [eV]                                             2.72113838565563E+01
 [a.u.] -> [Hz]                                             6.57968392072181E+15
 [a.u.] -> [1/cm] (wave numbers)                            2.19474631370540E+05
 [a.u./Bohr**2] -> [1/cm]                                   5.14048714338585E+03
 

 CELL_TOP| Volume [angstrom^3]:                                      2198.132028
 CELL_TOP| Vector a [angstrom    15.120     0.000     0.000   |a| =    15.120000
 CELL_TOP| Vector b [angstrom     0.000    15.120     0.000   |b| =    15.120000
 CELL_TOP| Vector c [angstrom     0.000     0.000     9.615   |c| =     9.615020
 CELL_TOP| Angle (b,c), alpha [degree]:                                90.000000
 CELL_TOP| Angle (a,c), beta  [degree]:                                90.000000
 CELL_TOP| Angle (a,b), gamma [degree]:                                90.000000
 CELL_TOP| Requested initial symmetry:                       MONOCLINIC_GAMMA_AB
 CELL_TOP| Numerically orthorhombic:                                         YES
 CELL_TOP| Periodicity                                                       XYZ

 *** WARNING in atoms_input.F:123 :: Overwriting coordinates. Active    ***
 *** coordinates read from &COORD section. Active coordinates READ from ***
 *** &COORD section                                                     ***


 GENERATE|  Preliminary Number of Bonds generated:                             0
 GENERATE|  Achieved consistency in connectivity generation.

 CELL| Volume [angstrom^3]:                                          2198.132028
 CELL| Vector a [angstrom]:      15.120     0.000     0.000   |a| =    15.120000
 CELL| Vector b [angstrom]:       0.000    15.120     0.000   |b| =    15.120000
 CELL| Vector c [angstrom]:       0.000     0.000     9.615   |c| =     9.615020
 CELL| Angle (b,c), alpha [degree]:                                    90.000000
 CELL| Angle (a,c), beta  [degree]:                                    90.000000
 CELL| Angle (a,b), gamma [degree]:                                    90.000000
 CELL| Requested initial symmetry:                           MONOCLINIC_GAMMA_AB
 CELL| Numerically orthorhombic:                                             YES
 CELL| Periodicity                                                           XYZ

 CELL_REF| Volume [angstrom^3]:                                      2198.132028
 CELL_REF| Vector a [angstrom    15.120     0.000     0.000   |a| =    15.120000
 CELL_REF| Vector b [angstrom     0.000    15.120     0.000   |b| =    15.120000
 CELL_REF| Vector c [angstrom     0.000     0.000     9.615   |c| =     9.615020
 CELL_REF| Angle (b,c), alpha [degree]:                                90.000000
 CELL_REF| Angle (a,c), beta  [degree]:                                90.000000
 CELL_REF| Angle (a,b), gamma [degree]:                                90.000000
 CELL_REF| Requested initial symmetry:                       MONOCLINIC_GAMMA_AB
 CELL_REF| Numerically orthorhombic:                                         YES
 CELL_REF| Periodicity                                                       XYZ

 *******************************************************************************
 *******************************************************************************
 **                                                                           **
 **     #####                         ##              ##                      **
 **    ##   ##            ##          ##              ##                      **
 **   ##     ##                       ##            ######                    **
 **   ##     ##  ##   ##  ##   #####  ##  ##   ####   ##    #####    #####    **
 **   ##     ##  ##   ##  ##  ##      ## ##   ##      ##   ##   ##  ##   ##   **
 **   ##  ## ##  ##   ##  ##  ##      ####     ###    ##   ######   ######    **
 **    ##  ###   ##   ##  ##  ##      ## ##      ##   ##   ##       ##        **
 **     #######   #####   ##   #####  ##  ##  ####    ##    #####   ##        **
 **           ##                                                    ##        **
 **                                                                           **
 **                                                ... make the atoms dance   **
 **                                                                           **
 **            Copyright (C) by CP2K developers group (2000-2024)             **
 **                      J. Chem. Phys. 152, 194103 (2020)                    **
 **                                                                           **
 *******************************************************************************

 DFT| Spin unrestricted (spin-polarized) Kohn-Sham calculation               UKS
 DFT| Multiplicity                                                             2
 DFT| Number of spin states                                                    2
 DFT| Charge                                                                   1
 DFT| Self-interaction correction (SIC)                                       NO
 DFT| Cutoffs: density                                              1.000000E-10
 DFT|          gradient                                             1.000000E-10
 DFT|          tau                                                  1.000000E-10
 DFT|          cutoff_smoothing_range                               0.000000E+00
 DFT| XC density smoothing                                                  NONE
 DFT| XC derivatives                                                          PW

 DFT+U| Method                                                          MULLIKEN
 DFT+U| Check atomic kind information for details

 FUNCTIONAL| PBE:
 FUNCTIONAL| J.P.Perdew, K.Burke, M.Ernzerhof, Phys. Rev. Letter, vol. 77, n 18,
 FUNCTIONAL|  pp. 3865-3868, (1996) {spin polarized}                            


 QS| Method:                                                                 GPW
 QS| Density plane wave grid type                        NON-SPHERICAL FULLSPACE
 QS| Number of grid levels:                                                    4
 QS| Density cutoff [a.u.]:                                                300.0
 QS| Multi grid cutoff [a.u.]: 1) grid level                               300.0
 QS|                           2) grid level                               100.0
 QS|                           3) grid level                                33.3
 QS|                           4) grid level                                11.1
 QS| Grid level progression factor:                                          3.0
 QS| Relative density cutoff [a.u.]:                                        20.0
 QS| Interaction thresholds: eps_pgf_orb:                                1.0E-06
 QS|                         eps_filter_matrix:                          0.0E+00
 QS|                         eps_core_charge:                            1.0E-14
 QS|                         eps_rho_gspace:                             1.0E-12
 QS|                         eps_rho_rspace:                             1.0E-12
 QS|                         eps_gvg_rspace:                             1.0E-06
 QS|                         eps_ppl:                                    1.0E-02
 QS|                         eps_ppnl:                                   1.0E-08


 ATOMIC KIND INFORMATION

  1. Atomic kind: Ti                                    Number of atoms:      64

     Orbital Basis Set                                    DZVP-MOLOPT-SR-GTH-q12

       Number of orbital shell sets:                                           1
       Number of orbital shells:                                               8
       Number of primitive Cartesian functions:                                6
       Number of Cartesian basis functions:                                   31
       Number of spherical basis functions:                                   26
       Norm type:                                                              2

       Normalised Cartesian orbitals:

                        Set   Shell   Orbital            Exponent    Coefficient

                          1       1    2s                7.884570       0.015554
                                                         3.894698       0.963603
                                                         1.513589      -0.631435
                                                         0.596768      -0.343022
                                                         0.222222      -0.006534
                                                         0.077078       0.007652

                          1       2    3s                7.884570      -0.009340
                                                         3.894698       0.212624
                                                         1.513589      -0.258368
                                                         0.596768      -0.226206
                                                         0.222222       0.039438
                                                         0.077078       0.107179

                          1       3    4s                7.884570       0.276563
                                                         3.894698       0.105452
                                                         1.513589       0.085149
                                                         0.596768       0.882541
                                                         0.222222      -0.696223
                                                         0.077078       0.156638

                          1       4    3px               7.884570      -2.034794
                                                         3.894698       0.782008
                                                         1.513589       1.253903
                                                         0.596768       0.347823
                                                         0.222222       0.016778
                                                         0.077078      -0.000433
                          1       4    3py               7.884570      -2.034794
                                                         3.894698       0.782008
                                                         1.513589       1.253903
                                                         0.596768       0.347823
                                                         0.222222       0.016778
                                                         0.077078      -0.000433
                          1       4    3pz               7.884570      -2.034794
                                                         3.894698       0.782008
                                                         1.513589       1.253903
                                                         0.596768       0.347823
                                                         0.222222       0.016778
                                                         0.077078      -0.000433

                          1       5    4px               7.884570       0.376572
                                                         3.894698      -0.182875
                                                         1.513589      -0.474776
                                                         0.596768      -0.081757
                                                         0.222222       0.064432
                                                         0.077078       0.047279
                          1       5    4py               7.884570       0.376572
                                                         3.894698      -0.182875
                                                         1.513589      -0.474776
                                                         0.596768      -0.081757
                                                         0.222222       0.064432
                                                         0.077078       0.047279
                          1       5    4pz               7.884570       0.376572
                                                         3.894698      -0.182875
                                                         1.513589      -0.474776
                                                         0.596768      -0.081757
                                                         0.222222       0.064432
                                                         0.077078       0.047279

                          1       6    4dx2              7.884570       3.047350
                                                         3.894698       3.289529
                                                         1.513589       1.060616
                                                         0.596768       0.249930
                                                         0.222222       0.038806
                                                         0.077078       0.002319
                          1       6    4dxy              7.884570       5.278165
                                                         3.894698       5.697631
                                                         1.513589       1.837041
                                                         0.596768       0.432892
                                                         0.222222       0.067214
                                                         0.077078       0.004017
                          1       6    4dxz              7.884570       5.278165
                                                         3.894698       5.697631
                                                         1.513589       1.837041
                                                         0.596768       0.432892
                                                         0.222222       0.067214
                                                         0.077078       0.004017
                          1       6    4dy2              7.884570       3.047350
                                                         3.894698       3.289529
                                                         1.513589       1.060616
                                                         0.596768       0.249930
                                                         0.222222       0.038806
                                                         0.077078       0.002319
                          1       6    4dyz              7.884570       5.278165
                                                         3.894698       5.697631
                                                         1.513589       1.837041
                                                         0.596768       0.432892
                                                         0.222222       0.067214
                                                         0.077078       0.004017
                          1       6    4dz2              7.884570       3.047350
                                                         3.894698       3.289529
                                                         1.513589       1.060616
                                                         0.596768       0.249930
                                                         0.222222       0.038806
                                                         0.077078       0.002319

                          1       7    5dx2              7.884570      -2.119015
                                                         3.894698      -1.237751
                                                         1.513589      -0.746777
                                                         0.596768      -0.071514
                                                         0.222222       0.004086
                                                         0.077078       0.017595
                          1       7    5dxy              7.884570      -3.670241
                                                         3.894698      -2.143848
                                                         1.513589      -1.293455
                                                         0.596768      -0.123865
                                                         0.222222       0.007077
                                                         0.077078       0.030475
                          1       7    5dxz              7.884570      -3.670241
                                                         3.894698      -2.143848
                                                         1.513589      -1.293455
                                                         0.596768      -0.123865
                                                         0.222222       0.007077
                                                         0.077078       0.030475
                          1       7    5dy2              7.884570      -2.119015
                                                         3.894698      -1.237751
                                                         1.513589      -0.746777
                                                         0.596768      -0.071514
                                                         0.222222       0.004086
                                                         0.077078       0.017595
                          1       7    5dyz              7.884570      -3.670241
                                                         3.894698      -2.143848
                                                         1.513589      -1.293455
                                                         0.596768      -0.123865
                                                         0.222222       0.007077
                                                         0.077078       0.030475
                          1       7    5dz2              7.884570      -2.119015
                                                         3.894698      -1.237751
                                                         1.513589      -0.746777
                                                         0.596768      -0.071514
                                                         0.222222       0.004086
                                                         0.077078       0.017595

                          1       8    5fx3              7.884570      -0.342058
                                                         3.894698       0.375798
                                                         1.513589      -0.706469
                                                         0.596768      -0.229994
                                                         0.222222      -0.012723
                                                         0.077078       0.003932
                          1       8    5fx2y             7.884570      -0.764866
                                                         3.894698       0.840310
                                                         1.513589      -1.579712
                                                         0.596768      -0.514282
                                                         0.222222      -0.028450
                                                         0.077078       0.008792
                          1       8    5fx2z             7.884570      -0.764866
                                                         3.894698       0.840310
                                                         1.513589      -1.579712
                                                         0.596768      -0.514282
                                                         0.222222      -0.028450
                                                         0.077078       0.008792
                          1       8    5fxy2             7.884570      -0.764866
                                                         3.894698       0.840310
                                                         1.513589      -1.579712
                                                         0.596768      -0.514282
                                                         0.222222      -0.028450
                                                         0.077078       0.008792
                          1       8    5fxyz             7.884570      -1.324787
                                                         3.894698       1.455460
                                                         1.513589      -2.736142
                                                         0.596768      -0.890763
                                                         0.222222      -0.049276
                                                         0.077078       0.015229
                          1       8    5fxz2             7.884570      -0.764866
                                                         3.894698       0.840310
                                                         1.513589      -1.579712
                                                         0.596768      -0.514282
                                                         0.222222      -0.028450
                                                         0.077078       0.008792
                          1       8    5fy3              7.884570      -0.342058
                                                         3.894698       0.375798
                                                         1.513589      -0.706469
                                                         0.596768      -0.229994
                                                         0.222222      -0.012723
                                                         0.077078       0.003932
                          1       8    5fy2z             7.884570      -0.764866
                                                         3.894698       0.840310
                                                         1.513589      -1.579712
                                                         0.596768      -0.514282
                                                         0.222222      -0.028450
                                                         0.077078       0.008792
                          1       8    5fyz2             7.884570      -0.764866
                                                         3.894698       0.840310
                                                         1.513589      -1.579712
                                                         0.596768      -0.514282
                                                         0.222222      -0.028450
                                                         0.077078       0.008792
                          1       8    5fz3              7.884570      -0.342058
                                                         3.894698       0.375798
                                                         1.513589      -0.706469
                                                         0.596768      -0.229994
                                                         0.222222      -0.012723
                                                         0.077078       0.003932

       Atomic covalent radius [Angstrom]:                                  1.320

       Atomic van der Waals radius [Angstrom]:                             1.760

     GTH Potential information for                                   GTH-PBE-q12

       Description:                       Goedecker-Teter-Hutter pseudopotential
                                           Goedecker et al., PRB 54, 1703 (1996)
                                          Hartwigsen et al., PRB 58, 3641 (1998)
                                                      Krack, TCA 114, 145 (2005)

       Gaussian exponent of the core charge distribution:               3.462604
       Electronic configuration (s p d ...):                           4   6   2

       Parameters of the local part of the GTH pseudopotential:

                          rloc        C1          C2          C3          C4
                        0.380000    8.711442   -0.700287

       Parameters of the non-local part of the GTH pseudopotential:

                   l      r(l)      h(i,j,l)

                   0    0.337771    2.575264    3.692971
                                    3.692971   -4.767605
                   1    0.242531   -4.630541    8.870875
                                    8.870875  -10.496161
                   2    0.243317   -9.406653

  2. Atomic kind: O                                     Number of atoms:     128

     Orbital Basis Set                                     DZVP-MOLOPT-SR-GTH-q6

       Number of orbital shell sets:                                           1
       Number of orbital shells:                                               5
       Number of primitive Cartesian functions:                                5
       Number of Cartesian basis functions:                                   14
       Number of spherical basis functions:                                   13
       Norm type:                                                              2

       Normalised Cartesian orbitals:

                        Set   Shell   Orbital            Exponent    Coefficient

                          1       1    2s               10.389228       0.396646
                                                         3.849621       0.208811
                                                         1.388401      -0.301641
                                                         0.496955      -0.274061
                                                         0.162492      -0.033677

                          1       2    3s               10.389228       0.303673
                                                         3.849621       0.240943
                                                         1.388401      -0.313066
                                                         0.496955      -0.043055
                                                         0.162492       0.213991

                          1       3    3px              10.389228      -1.530415
                                                         3.849621      -1.371928
                                                         1.388401      -0.761951
                                                         0.496955      -0.253695
                                                         0.162492      -0.035541
                          1       3    3py              10.389228      -1.530415
                                                         3.849621      -1.371928
                                                         1.388401      -0.761951
                                                         0.496955      -0.253695
                                                         0.162492      -0.035541
                          1       3    3pz              10.389228      -1.530415
                                                         3.849621      -1.371928
                                                         1.388401      -0.761951
                                                         0.496955      -0.253695
                                                         0.162492      -0.035541

                          1       4    4px              10.389228      -0.565392
                                                         3.849621      -0.038231
                                                         1.388401      -0.382373
                                                         0.496955       0.179070
                                                         0.162492       0.122714
                          1       4    4py              10.389228      -0.565392
                                                         3.849621      -0.038231
                                                         1.388401      -0.382373
                                                         0.496955       0.179070
                                                         0.162492       0.122714
                          1       4    4pz              10.389228      -0.565392
                                                         3.849621      -0.038231
                                                         1.388401      -0.382373
                                                         0.496955       0.179070
                                                         0.162492       0.122714

                          1       5    4dx2             10.389228       1.867377
                                                         3.849621       0.670994
                                                         1.388401       1.353441
                                                         0.496955       0.273538
                                                         0.162492       0.006620
                          1       5    4dxy             10.389228       3.234392
                                                         3.849621       1.162195
                                                         1.388401       2.344229
                                                         0.496955       0.473781
                                                         0.162492       0.011466
                          1       5    4dxz             10.389228       3.234392
                                                         3.849621       1.162195
                                                         1.388401       2.344229
                                                         0.496955       0.473781
                                                         0.162492       0.011466
                          1       5    4dy2             10.389228       1.867377
                                                         3.849621       0.670994
                                                         1.388401       1.353441
                                                         0.496955       0.273538
                                                         0.162492       0.006620
                          1       5    4dyz             10.389228       3.234392
                                                         3.849621       1.162195
                                                         1.388401       2.344229
                                                         0.496955       0.473781
                                                         0.162492       0.011466
                          1       5    4dz2             10.389228       1.867377
                                                         3.849621       0.670994
                                                         1.388401       1.353441
                                                         0.496955       0.273538
                                                         0.162492       0.006620

       Atomic covalent radius [Angstrom]:                                  0.730

       Atomic van der Waals radius [Angstrom]:                             1.520

     GTH Potential information for                                    GTH-PBE-q6

       Description:                       Goedecker-Teter-Hutter pseudopotential
                                           Goedecker et al., PRB 54, 1703 (1996)
                                          Hartwigsen et al., PRB 58, 3641 (1998)
                                                      Krack, TCA 114, 145 (2005)

       Gaussian exponent of the core charge distribution:               8.360253
       Electronic configuration (s p d ...):                               2   4

       Parameters of the local part of the GTH pseudopotential:

                          rloc        C1          C2          C3          C4
                        0.244554  -16.667215    2.487311

       Parameters of the non-local part of the GTH pseudopotential:

                   l      r(l)      h(i,j,l)

                   0    0.220956   18.337458
                   1    0.211332

     A DFT+U correction is applied to atoms of this atomic kind:
       Angular quantum momentum number L:                                      1
       U(eff) = (U - J) value in [eV]:                                     4.500


 MOLECULE KIND INFORMATION


 All atoms are their own molecule, skipping detailed information


 TOTAL NUMBERS AND MAXIMUM NUMBERS

  Total number of            - Atomic kinds:                                   2
                             - Atoms:                                        192
                             - Shell sets:                                   192
                             - Shells:                                      1152
                             - Primitive Cartesian functions:               1024
                             - Cartesian basis functions:                   3776
                             - Spherical basis functions:                   3328

  Maximum angular momentum of- Orbital basis functions:                        3
                             - Local part of the GTH pseudopotential:          2
                             - Non-local part of the GTH pseudopotential:      3


 MODULE QUICKSTEP: ATOMIC COORDINATES IN ANGSTROM

   Atom Kind Element         X             Y             Z       Z(eff)     Mass
      1    1 Ti   22      0.000939      0.000936      0.000000  12.0000  47.8670
      2    1 Ti   22      1.888326      1.888331      4.807508  12.0000  47.8670
      3    1 Ti   22      0.000915      1.888343      2.401955  12.0000  47.8670
      4    1 Ti   22      1.888349      0.000912      7.213062  12.0000  47.8670
      5    1 Ti   22      0.000913      3.776198      0.002857  12.0000  47.8670
      6    1 Ti   22      1.888355     13.237686      4.805677  12.0000  47.8670
      7    1 Ti   22     11.350338      1.888328      2.403683  12.0000  47.8670
      8    1 Ti   22      5.668926      0.000892      7.217288  12.0000  47.8670
      9    1 Ti   22      1.888320      3.776170      7.210165  12.0000  47.8670
     10    1 Ti   22      0.000936     13.237664      2.403792  12.0000  47.8670
     11    1 Ti   22      5.668935      1.888344      4.803270  12.0000  47.8670
     12    1 Ti   22     11.350316      0.000916     -0.001733  12.0000  47.8670
     13    1 Ti   22      3.776197      0.000922     -0.002851  12.0000  47.8670
     14    1 Ti   22     13.237685      1.888348      4.809343  12.0000  47.8670
     15    1 Ti   22     13.237671      0.000930      7.211235  12.0000  47.8670
     16    1 Ti   22      3.776176      1.888329      2.404857  12.0000  47.8670
     17    1 Ti   22      1.888341      5.668936      4.811748  12.0000  47.8670
     18    1 Ti   22      0.000918     11.350321      0.001730  12.0000  47.8670
     19    1 Ti   22      0.000891      5.668927      2.397728  12.0000  47.8670
     20    1 Ti   22      1.888333     11.350332      7.211336  12.0000  47.8670
     21    1 Ti   22      0.000897      7.569973      0.005986  12.0000  47.8670
     22    1 Ti   22      1.888332      9.462614      4.808509  12.0000  47.8670
     23    1 Ti   22      7.569969      1.888343      2.407954  12.0000  47.8670
     24    1 Ti   22      9.462586      0.000907      7.214025  12.0000  47.8670
     25    1 Ti   22      1.888340      7.569961      7.207066  12.0000  47.8670
     26    1 Ti   22      0.000913      9.462586      2.400998  12.0000  47.8670
     27    1 Ti   22      9.462614      1.888333      4.806512  12.0000  47.8670
     28    1 Ti   22      7.569965      0.000901     -0.005985  12.0000  47.8670
     29    1 Ti   22      3.776174      3.776181     -0.000002  12.0000  47.8670
     30    1 Ti   22     13.237675     13.237673      4.807516  12.0000  47.8670
     31    1 Ti   22     11.350319      5.668936      2.399447  12.0000  47.8670
     32    1 Ti   22      5.668939     11.350314      7.215570  12.0000  47.8670
     33    1 Ti   22     13.237682      3.776192      7.208381  12.0000  47.8670
     34    1 Ti   22      3.776200     13.237684      2.406642  12.0000  47.8670
     35    1 Ti   22      5.668864      5.668869      4.807506  12.0000  47.8670
     36    1 Ti   22     11.350340     11.350341      0.000000  12.0000  47.8670
     37    1 Ti   22     11.350321     13.237684      2.405523  12.0000  47.8670
     38    1 Ti   22      5.668905      3.776195      7.214451  12.0000  47.8670
     39    1 Ti   22      3.776180     11.350348     -0.001170  12.0000  47.8670
     40    1 Ti   22     13.237702      5.668927      4.813567  12.0000  47.8670
     41    1 Ti   22      5.668937     13.237704      4.801454  12.0000  47.8670
     42    1 Ti   22     11.350335      3.776178      0.001169  12.0000  47.8670
     43    1 Ti   22     13.237688     11.350307      7.209499  12.0000  47.8670
     44    1 Ti   22      3.776192      5.668908      2.400566  12.0000  47.8670
     45    1 Ti   22      3.776196      7.569995      0.003144  12.0000  47.8670
     46    1 Ti   22     13.237690      9.462588      4.810297  12.0000  47.8670
     47    1 Ti   22      7.570026      5.668866      2.403711  12.0000  47.8670
     48    1 Ti   22      9.462612     11.350331      7.212333  12.0000  47.8670
     49    1 Ti   22     13.237702      7.569962      7.205248  12.0000  47.8670
     50    1 Ti   22      3.776172      9.462607      2.403851  12.0000  47.8670
     51    1 Ti   22      9.462581      5.668916      4.810802  12.0000  47.8670
     52    1 Ti   22      7.569970     11.350329     -0.004264  12.0000  47.8670
     53    1 Ti   22     11.350336      9.462608      2.402683  12.0000  47.8670
     54    1 Ti   22      5.668864      7.570020      7.211307  12.0000  47.8670
     55    1 Ti   22      5.668915      9.462585      4.804217  12.0000  47.8670
     56    1 Ti   22     11.350323      7.569968      0.004262  12.0000  47.8670
     57    1 Ti   22      9.462604      3.776169      7.211167  12.0000  47.8670
     58    1 Ti   22      7.569973     13.237705      2.409773  12.0000  47.8670
     59    1 Ti   22      7.569983      3.776199     -0.003145  12.0000  47.8670
     60    1 Ti   22      9.462593     13.237694      4.804725  12.0000  47.8670
     61    1 Ti   22      7.570023      7.570029      0.000001  12.0000  47.8670
     62    1 Ti   22      9.462615      9.462614      4.807508  12.0000  47.8670
     63    1 Ti   22      7.569985      9.462585      2.406998  12.0000  47.8670
     64    1 Ti   22      9.462580      7.569984      7.208022  12.0000  47.8670
     65    2 O     8      0.000599      0.001638      1.988238   6.0000  15.9994
     66    2 O     8      1.884709      1.887495      6.796009   6.0000  15.9994
     67    2 O     8      0.001620      1.884687      4.392098   6.0000  15.9994
     68    2 O     8      1.887519      0.000603      9.199656   6.0000  15.9994
     69    2 O     8      1.884688      0.001620      5.222922   6.0000  15.9994
     70    2 O     8      0.000603      1.887518      0.415364   6.0000  15.9994
     71    2 O     8      1.887494      1.884709      2.819011   6.0000  15.9994
     72    2 O     8      0.001639      0.000598      7.626781   6.0000  15.9994
     73    2 O     8      0.000636      3.775936      1.985408   6.0000  15.9994
     74    2 O     8      1.884689     13.236931      6.795857   6.0000  15.9994
     75    2 O     8     11.351123      1.884704      4.392301   6.0000  15.9994
     76    2 O     8      5.672273      0.000597      9.200826   6.0000  15.9994
     77    2 O     8      1.884792      3.775891      5.225685   6.0000  15.9994
     78    2 O     8      0.000598     13.236916      0.415516   6.0000  15.9994
     79    2 O     8      5.672237      1.884763      2.817931   6.0000  15.9994
     80    2 O     8     11.351102      0.000601      7.626579   6.0000  15.9994
     81    2 O     8      3.775938      0.000638      7.629609   6.0000  15.9994
     82    2 O     8     13.236931      1.884688      2.819162   6.0000  15.9994
     83    2 O     8     13.236917      0.000598      9.199502   6.0000  15.9994
     84    2 O     8      3.775892      1.884793      4.389333   6.0000  15.9994
     85    2 O     8      1.884762      5.672236      6.797089   6.0000  15.9994
     86    2 O     8      0.000601     11.351103      1.988443   6.0000  15.9994
     87    2 O     8      0.000597      5.672274      0.414195   6.0000  15.9994
     88    2 O     8      1.884704     11.351123      5.222718   6.0000  15.9994
     89    2 O     8      0.000596      7.566707      1.989629   6.0000  15.9994
     90    2 O     8      1.884791      9.462828      6.793186   6.0000  15.9994
     91    2 O     8      7.566748      1.884762      4.393405   6.0000  15.9994
     92    2 O     8      9.462784      0.000635      9.196771   6.0000  15.9994
     93    2 O     8      1.884761      7.566746      5.221616   6.0000  15.9994
     94    2 O     8      0.000635      9.462785      0.418249   6.0000  15.9994
     95    2 O     8      9.462828      1.884790      2.821834   6.0000  15.9994
     96    2 O     8      7.566706      0.000597      7.625392   6.0000  15.9994
     97    2 O     8      3.769484      0.001614      1.988844   6.0000  15.9994
     98    2 O     8     13.237873      1.887518      6.795882   6.0000  15.9994
     99    2 O     8      0.001616      5.655550      4.392166   6.0000  15.9994
    100    2 O     8      1.887497     11.353833      9.199770   6.0000  15.9994
    101    2 O     8     13.237877      0.001638      5.223043   6.0000  15.9994
    102    2 O     8      3.769547      1.887506      0.414799   6.0000  15.9994
    103    2 O     8      1.887536      5.655680      2.818974   6.0000  15.9994
    104    2 O     8      0.001620     11.353854      7.626675   6.0000  15.9994
    105    2 O     8     11.353833      1.887496      0.415249   6.0000  15.9994
    106    2 O     8      5.655552      0.001618      5.222852   6.0000  15.9994
    107    2 O     8      5.655679      1.887537      6.796044   6.0000  15.9994
    108    2 O     8     11.353854      0.001620      1.988346   6.0000  15.9994
    109    2 O     8      1.887505      3.769546      9.200221   6.0000  15.9994
    110    2 O     8      0.001638     13.237875      4.391975   6.0000  15.9994
    111    2 O     8      0.001614      3.769484      7.626174   6.0000  15.9994
    112    2 O     8      1.887519     13.237872      2.819137   6.0000  15.9994
    113    2 O     8      3.769670      3.775889      1.986088   6.0000  15.9994
    114    2 O     8     13.237877     13.236917      6.795731   6.0000  15.9994
    115    2 O     8     11.351080      5.655670      4.392336   6.0000  15.9994
    116    2 O     8      5.672238     11.353782      9.200846   6.0000  15.9994
    117    2 O     8     13.237841      3.775937      5.225872   6.0000  15.9994
    118    2 O     8      3.769487     13.236935      0.414903   6.0000  15.9994
    119    2 O     8      5.672255      5.655881      2.817685   6.0000  15.9994
    120    2 O     8     11.351123     11.353838      7.626470   6.0000  15.9994
    121    2 O     8     11.353855     13.236930      0.415405   6.0000  15.9994
    122    2 O     8      5.655826      3.775925      5.225566   6.0000  15.9994
    123    2 O     8      3.775893     11.353751      7.629434   6.0000  15.9994
    124    2 O     8     13.236931      5.655551      2.819092   6.0000  15.9994
    125    2 O     8      5.655552     13.236932      6.795924   6.0000  15.9994
    126    2 O     8     11.353750      3.775892      1.985583   6.0000  15.9994
    127    2 O     8     13.236931     11.353854      9.199617   6.0000  15.9994
    128    2 O     8      3.775921      5.655825      4.389454   6.0000  15.9994
    129    2 O     8      5.655880      5.672258      6.797338   6.0000  15.9994
    130    2 O     8     11.353838     11.351123      1.988553   6.0000  15.9994
    131    2 O     8     13.236936      3.769484      9.200114   6.0000  15.9994
    132    2 O     8      3.775937     13.237842      4.389145   6.0000  15.9994
    133    2 O     8     11.353782      5.672238      0.414172   6.0000  15.9994
    134    2 O     8      5.655670     11.351080      5.222681   6.0000  15.9994
    135    2 O     8      3.775891      3.769672      7.628935   6.0000  15.9994
    136    2 O     8     13.236915     13.237876      2.819288   6.0000  15.9994
    137    2 O     8     13.237875     11.351100      5.222843   6.0000  15.9994
    138    2 O     8      3.769671      5.672222      0.413674   6.0000  15.9994
    139    2 O     8      5.672276     13.237880      2.817964   6.0000  15.9994
    140    2 O     8     11.351111      3.769537      7.626018   6.0000  15.9994
    141    2 O     8      3.769537     11.351113      1.989001   6.0000  15.9994
    142    2 O     8     13.237880      5.672271      6.797056   6.0000  15.9994
    143    2 O     8     11.351103     13.237875      4.392181   6.0000  15.9994
    144    2 O     8      5.672224      3.769672      9.201348   6.0000  15.9994
    145    2 O     8      3.769670      7.566757      1.990149   6.0000  15.9994
    146    2 O     8     13.237844      9.462784      6.793000   6.0000  15.9994
    147    2 O     8      7.566718      5.655879      4.393654   6.0000  15.9994
    148    2 O     8      9.462826     11.353753      9.196948   6.0000  15.9994
    149    2 O     8     13.237881      7.566704      5.221652   6.0000  15.9994
    150    2 O     8      3.769672      9.462824      0.417574   6.0000  15.9994
    151    2 O     8      9.462786      5.655823      2.821725   6.0000  15.9994
    152    2 O     8      7.566747     11.353783      7.625367   6.0000  15.9994
    153    2 O     8     11.353754      9.462825      0.418074   6.0000  15.9994
    154    2 O     8      5.655877      7.566715      5.221367   6.0000  15.9994
    155    2 O     8      5.655823      9.462788      6.793293   6.0000  15.9994
    156    2 O     8     11.353782      7.566745      1.989655   6.0000  15.9994
    157    2 O     8      9.462825      3.769671      9.197445   6.0000  15.9994
    158    2 O     8      7.566705     13.237882      4.393372   6.0000  15.9994
    159    2 O     8      7.566756      3.769672      7.624871   6.0000  15.9994
    160    2 O     8      9.462783     13.237844      2.822026   6.0000  15.9994
    161    2 O     8      7.583081      0.001616      1.988430   6.0000  15.9994
    162    2 O     8      9.469033      1.887505      6.796449   6.0000  15.9994
    163    2 O     8      0.001613      9.469092      4.392582   6.0000  15.9994
    164    2 O     8      1.887531      7.582962      9.199817   6.0000  15.9994
    165    2 O     8      9.469093      0.001614      5.222438   6.0000  15.9994
    166    2 O     8      7.582959      1.887531      0.415202   6.0000  15.9994
    167    2 O     8      1.887503      9.469033      2.818571   6.0000  15.9994
    168    2 O     8      0.001616      7.583079      7.626589   6.0000  15.9994
    169    2 O     8      7.582812      3.775917      1.985715   6.0000  15.9994
    170    2 O     8      9.469092     13.236937      6.796343   6.0000  15.9994
    171    2 O     8     11.351111      9.469042      4.392740   6.0000  15.9994
    172    2 O     8      5.672252      7.582759      9.201090   6.0000  15.9994
    173    2 O     8      9.468911      3.775890      5.225203   6.0000  15.9994
    174    2 O     8      7.583085     13.236934      0.415321   6.0000  15.9994
    175    2 O     8      5.672220      9.468914      2.817443   6.0000  15.9994
    176    2 O     8     11.351086      7.582969      7.626421   6.0000  15.9994
    177    2 O     8      3.775919      7.582811      7.629306   6.0000  15.9994
    178    2 O     8     13.236934      9.469090      2.818679   6.0000  15.9994
    179    2 O     8     13.236934      7.583083      9.199699   6.0000  15.9994
    180    2 O     8      3.775888      9.468911      4.389816   6.0000  15.9994
    181    2 O     8      9.468913      5.672227      6.797574   6.0000  15.9994
    182    2 O     8      7.582969     11.351086      1.988599   6.0000  15.9994
    183    2 O     8      7.582758      5.672250      0.413932   6.0000  15.9994
    184    2 O     8      9.469042     11.351112      5.222283   6.0000  15.9994
    185    2 O     8      7.582762      7.566722      1.989896   6.0000  15.9994
    186    2 O     8      9.468913      9.462827      6.793669   6.0000  15.9994
    187    2 O     8      7.566750      9.468916      4.393886   6.0000  15.9994
    188    2 O     8      9.462793      7.582812      9.197064   6.0000  15.9994
    189    2 O     8      9.468915      7.566759      5.221132   6.0000  15.9994
    190    2 O     8      7.582813      9.462792      0.417957   6.0000  15.9994
    191    2 O     8      9.462824      9.468913      2.821353   6.0000  15.9994
    192    2 O     8      7.566723      7.582763      7.625125   6.0000  15.9994



 SCF PARAMETERS         Density guess:                                   RESTART
                        --------------------------------------------------------
                        max_scf:                                              40
                        max_scf_history:                                       0
                        max_diis:                                              4
                        --------------------------------------------------------
                        eps_scf:                                        1.00E-06
                        eps_scf_history:                                0.00E+00
                        eps_diis:                                       1.00E-01
                        eps_eigval:                                     1.00E-05
                        --------------------------------------------------------
                        level_shift [a.u.]:                             0.000000
                        --------------------------------------------------------
                        Outer loop SCF in use 
                        No variables optimised in outer loop
                        eps_scf                                         1.00E-06
                        max_scf                                               60
                        No outer loop optimization
                        step_size                                       5.00E-01

 PW_GRID| Information for grid number                                          1
 PW_GRID| Grid distributed over                                   128 processors
 PW_GRID| Real space group dimensions                                   128    1
 PW_GRID| the grid is blocked:                                                NO
 PW_GRID| Cutoff [a.u.]                                                    300.0
 PW_GRID| spherical cutoff:                                                   NO
 PW_GRID|   Bounds   1           -112     112                Points:         225
 PW_GRID|   Bounds   2           -112     112                Points:         225
 PW_GRID|   Bounds   3            -72      71                Points:         144
 PW_GRID| Volume element (a.u.^3)  0.2035E-02     Volume (a.u.^3)     14833.7304
 PW_GRID| Grid span                                                    FULLSPACE
 PW_GRID|   Distribution                         Average         Max         Min
 PW_GRID|   G-Vectors                            56953.1       57150       56925
 PW_GRID|   G-Rays                                 253.1         254         253
 PW_GRID|   Real Space Points                    56953.1       64800       32400

 PW_GRID| Information for grid number                                          2
 PW_GRID| Number of the reference grid                                         1
 PW_GRID| Grid distributed over                                   128 processors
 PW_GRID| Real space group dimensions                                   128    1
 PW_GRID| the grid is blocked:                                                NO
 PW_GRID| Cutoff [a.u.]                                                    100.0
 PW_GRID| spherical cutoff:                                                   NO
 PW_GRID|   Bounds   1            -67      67                Points:         135
 PW_GRID|   Bounds   2            -67      67                Points:         135
 PW_GRID|   Bounds   3            -40      40                Points:          81
 PW_GRID| Volume element (a.u.^3)  0.1005E-01     Volume (a.u.^3)     14833.7304
 PW_GRID| Grid span                                                    FULLSPACE
 PW_GRID|   Distribution                         Average         Max         Min
 PW_GRID|   G-Vectors                            11533.0       12150       10800
 PW_GRID|   G-Rays                                  85.4          90          80
 PW_GRID|   Real Space Points                    11533.0       21870       10935

 PW_GRID| Information for grid number                                          3
 PW_GRID| Number of the reference grid                                         1
 PW_GRID| Grid distributed over                                   128 processors
 PW_GRID| Real space group dimensions                                     8   16
 PW_GRID| the grid is blocked:                                                NO
 PW_GRID| Cutoff [a.u.]                                                     33.3
 PW_GRID| spherical cutoff:                                                   NO
 PW_GRID|   Bounds   1            -37      37                Points:          75
 PW_GRID|   Bounds   2            -37      37                Points:          75
 PW_GRID|   Bounds   3            -24      23                Points:          48
 PW_GRID| Volume element (a.u.^3)  0.5494E-01     Volume (a.u.^3)     14833.7304
 PW_GRID| Grid span                                                    FULLSPACE
 PW_GRID|   Distribution                         Average         Max         Min
 PW_GRID|   G-Vectors                             2109.4        2475        1725
 PW_GRID|   G-Rays                                  28.1          33          23
 PW_GRID|   Real Space Points                     2109.4        2400        1728

 PW_GRID| Information for grid number                                          4
 PW_GRID| Number of the reference grid                                         1
 PW_GRID| Grid distributed over                                   128 processors
 PW_GRID| Real space group dimensions                                     8   16
 PW_GRID| the grid is blocked:                                                NO
 PW_GRID| Cutoff [a.u.]                                                     11.1
 PW_GRID| spherical cutoff:                                                   NO
 PW_GRID|   Bounds   1            -22      22                Points:          45
 PW_GRID|   Bounds   2            -22      22                Points:          45
 PW_GRID|   Bounds   3            -13      13                Points:          27
 PW_GRID| Volume element (a.u.^3)  0.2713         Volume (a.u.^3)     14833.7304
 PW_GRID| Grid span                                                    FULLSPACE
 PW_GRID|   Distribution                         Average         Max         Min
 PW_GRID|   G-Vectors                              427.1         585         270
 PW_GRID|   G-Rays                                   9.5          13           6
 PW_GRID|   Real Space Points                      427.1         486         270

 POISSON| Solver                                                        PERIODIC
 POISSON| Periodicity                                                        XYZ

 RS_GRID| Information for grid number                                          1
 RS_GRID|   Bounds   1           -112     112                Points:         225
 RS_GRID|   Bounds   2           -112     112                Points:         225
 RS_GRID|   Bounds   3            -72      71                Points:         144
 RS_GRID| Real space distribution over                                  8 groups
 RS_GRID| Real space distribution along direction                              1
 RS_GRID| Border size                                                         26
 RS_GRID| Real space distribution over                                 16 groups
 RS_GRID| Real space distribution along direction                              2
 RS_GRID| Border size                                                         26
 RS_GRID|   Distribution                         Average         Max         Min
 RS_GRID|   Planes                                  80.1          81          80
 RS_GRID|   Distribution                         Average         Max         Min
 RS_GRID|   Planes                                  66.1          67          66

 RS_GRID| Information for grid number                                          2
 RS_GRID|   Bounds   1            -67      67                Points:         135
 RS_GRID|   Bounds   2            -67      67                Points:         135
 RS_GRID|   Bounds   3            -40      40                Points:          81
 RS_GRID| Real space distribution over                                  8 groups
 RS_GRID| Real space distribution along direction                              1
 RS_GRID| Border size                                                         24
 RS_GRID| Real space distribution over                                 16 groups
 RS_GRID| Real space distribution along direction                              2
 RS_GRID| Border size                                                         24
 RS_GRID|   Distribution                         Average         Max         Min
 RS_GRID|   Planes                                  64.9          65          64
 RS_GRID|   Distribution                         Average         Max         Min
 RS_GRID|   Planes                                  56.4          57          56

 RS_GRID| Information for grid number                                          3
 RS_GRID|   Bounds   1            -37      37                Points:          75
 RS_GRID|   Bounds   2            -37      37                Points:          75
 RS_GRID|   Bounds   3            -24      23                Points:          48
 RS_GRID| Real space fully replicated
 RS_GRID| Group size                                                           1

 RS_GRID| Information for grid number                                          4
 RS_GRID|   Bounds   1            -22      22                Points:          45
 RS_GRID|   Bounds   2            -22      22                Points:          45
 RS_GRID|   Bounds   3            -13      13                Points:          27
 RS_GRID| Real space fully replicated
 RS_GRID| Group size                                                           1

 BFGS| Use rational function optimization for step estimation:                NO
 BFGS| Use model Hessian for initial guess:                                  YES
 BFGS| Restart Hessian:                                                       NO
 BFGS| Trust radius:                                                       0.472

 *******************************************************************************
 ***                     STARTING GEOMETRY OPTIMIZATION                      ***
 ***                                   BFGS                                  ***
 *******************************************************************************

 Spin 1

 Number of electrons:                                                        768
 Number of occupied orbitals:                                                768
 Number of molecular orbitals:                                               768

 Spin 2

 Number of electrons:                                                        767
 Number of occupied orbitals:                                                767
 Number of molecular orbitals:                                               767

 Number of orbital functions:                                               3328
 Number of independent orbital functions:                                   3328

 Extrapolation method: initial_guess

 *** WARNING in qs_initial_guess.F:306 :: User requested to restart the    ***
 *** wavefunction from the file named: tio2-RESTART.wfn. This file does    ***
 *** not exist. Please check the existence of the file or change properly  ***
 *** the value of the keyword WFN_RESTART_FILE_NAME. Calculation continues ***
 *** using ATOMIC GUESS.                                                   ***


 Atomic guess: The first density matrix is obtained in terms of atomic orbitals
               and electronic configurations assigned to each atomic kind

 Guess for atomic kind: Ti

 Electronic structure
    Total number of core electrons                                         10.00
    Total number of valence electrons                                      12.00
    Total number of electrons                                              22.00
    Multiplicity                                                   not specified
    S   [  2.00  2.00] 2.00  2.00
    P   [  6.00] 6.00
    D      2.00


 *******************************************************************************
                  Iteration          Convergence                     Energy [au]
 *******************************************************************************
                          1         2.59099                     -56.573945749309
                          2        0.737518                     -57.461623245624
                          3        0.123244E-01                 -57.676656834797
                          4        0.338536E-02                 -57.676690535970
                          5        0.252157E-03                 -57.676697146183
                          6        0.162704E-05                 -57.676697160103
                          7        0.846593E-06                 -57.676697160104

 Energy components [Hartree]           Total Energy ::          -57.676697160104
                                        Band Energy ::          -13.440549799540
                                     Kinetic Energy ::           25.008468428381
                                   Potential Energy ::          -82.685165588485
                                      Virial (-V/T) ::            3.306286661467
                                        Core Energy ::          -97.155838374470
                                          XC Energy ::           -6.919409696495
                                     Coulomb Energy ::           46.398550910862
                       Total Pseudopotential Energy ::         -122.259340742080
                       Local Pseudopotential Energy ::         -118.928992669456
                    Nonlocal Pseudopotential Energy ::           -3.330348072625
                                        Confinement ::            0.950339392289

 Orbital energies  State     L     Occupation   Energy[a.u.]          Energy[eV]

                       1     0          2.000      -2.312566          -62.928123
                       2     0          2.000      -0.123060           -3.348633

                       1     1          6.000      -1.385567          -37.703193

                       1     2          2.000      -0.127948           -3.481643


 Total Electron Density at R=0:                                         0.004726

 Guess for atomic kind: O

 Electronic structure
    Total number of core electrons                                          2.00
    Total number of valence electrons                                       6.00
    Total number of electrons                                               8.00
    Multiplicity                                                   not specified
    S   [  2.00] 2.00
    P      4.00


 *******************************************************************************
                  Iteration          Convergence                     Energy [au]
 *******************************************************************************
                          1        0.702811                     -15.577904332270
                          2        0.612408                     -15.588447180504
                          3        0.955344E-02                 -15.655871208406
                          4        0.223754E-02                 -15.655885053552
                          5        0.157183E-02                 -15.655885461027
                          6        0.124953E-02                 -15.655885607150
                          7        0.312011E-06                 -15.655885858066

 Energy components [Hartree]           Total Energy ::          -15.655885858066
                                        Band Energy ::           -2.983128125584
                                     Kinetic Energy ::           11.754765134683
                                   Potential Energy ::          -27.410650992749
                                      Virial (-V/T) ::            2.331875684345
                                        Core Energy ::          -26.153522949072
                                          XC Energy ::           -3.157392363346
                                     Coulomb Energy ::           13.655029454351
                       Total Pseudopotential Energy ::          -37.943026860963
                       Local Pseudopotential Energy ::          -39.220419683052
                    Nonlocal Pseudopotential Energy ::            1.277392822089
                                        Confinement ::            0.347387772086

 Orbital energies  State     L     Occupation   Energy[a.u.]          Energy[eV]

                       1     0          2.000      -0.861522          -23.443215

                       1     1          4.000      -0.315021           -8.572154


 Total Electron Density at R=0:                                         0.000093

 Spin 1
 Re-scaling the density matrix to get the right number of electrons for spin 1
                  # Electrons              Trace(P)               Scaling factor
                          768               768.001                        1.000

 Spin 2
 Re-scaling the density matrix to get the right number of electrons for spin 2
                  # Electrons              Trace(P)               Scaling factor
                          767               768.001                        0.999


 SCF WAVEFUNCTION OPTIMIZATION

  ----------------------------------- OT ---------------------------------------
  Minimizer      : DIIS                : direct inversion
                                         in the iterative subspace
                                         using   7 DIIS vectors
                                         safer DIIS on
  Preconditioner : FULL_SINGLE_INVERSE : inversion of 
                                         H + eS - 2*(Sc)(c^T*H*c+const)(Sc)^T
  Precond_solver : DEFAULT
  stepsize       :    0.08000000                  energy_gap     :    0.08000000
  eps_taylor     :   0.10000E-15                  max_taylor     :             4
  ----------------------------------- OT ---------------------------------------

  Step     Update method      Time    Convergence         Total energy    Change
  ------------------------------------------------------------------------------
     1 OT DIIS     0.80E-01    2.0     0.01001321     -5654.0663670848 -5.65E+03
     2 OT DIIS     0.80E-01    1.5     0.00723787     -5688.8074119528 -3.47E+01
     3 OT DIIS     0.80E-01    1.5     0.00459461     -5721.4225333566 -3.26E+01
     4 OT DIIS     0.80E-01    1.5     0.00365133     -5731.6482533061 -1.02E+01
     5 OT DIIS     0.80E-01    1.5     0.00266910     -5742.9718441592 -1.13E+01
     6 OT DIIS     0.80E-01    1.5     0.00219927     -5749.8452906943 -6.87E+00
     7 OT DIIS     0.80E-01    1.5     0.00184786     -5755.9082286937 -6.06E+00
     8 OT DIIS     0.80E-01    1.6     0.00147880     -5761.8233078102 -5.92E+00
     9 OT DIIS     0.80E-01    1.5     0.00127702     -5765.4378416508 -3.61E+00
    10 OT DIIS     0.80E-01    1.5     0.00099645     -5768.6872709641 -3.25E+00
    11 OT DIIS     0.80E-01    1.5     0.00090948     -5769.5017570508 -8.14E-01
    12 OT DIIS     0.80E-01    1.5     0.00073768     -5771.2880431218 -1.79E+00
    13 OT DIIS     0.80E-01    1.5     0.00060290     -5772.6500374527 -1.36E+00
    14 OT DIIS     0.80E-01    1.5     0.00049925     -5773.5741254286 -9.24E-01
    15 OT DIIS     0.80E-01    1.5     0.00044782     -5774.0555096726 -4.81E-01
    16 OT DIIS     0.80E-01    1.5     0.00037765     -5774.5789087489 -5.23E-01
    17 OT DIIS     0.80E-01    1.5     0.00034796     -5774.8106311348 -2.32E-01
    18 OT DIIS     0.80E-01    1.5     0.00030322     -5775.1246909464 -3.14E-01
    19 OT DIIS     0.80E-01    1.5     0.00026687     -5775.3350106990 -2.10E-01
    20 OT DIIS     0.80E-01    1.5     0.00025364     -5775.4389593788 -1.04E-01
    21 OT DIIS     0.80E-01    1.5     0.00022952     -5775.6358099407 -1.97E-01
    22 OT DIIS     0.80E-01    1.4     0.00020887     -5775.7657315282 -1.30E-01
    23 OT DIIS     0.80E-01    1.5     0.00019277     -5775.8946445439 -1.29E-01
    24 OT DIIS     0.80E-01    1.5     0.00017237     -5775.9815767105 -8.69E-02
    25 OT DIIS     0.80E-01    1.5     0.00016581     -5776.0401503636 -5.86E-02
    26 OT DIIS     0.80E-01    1.5     0.00014719     -5776.1140877060 -7.39E-02
    27 OT DIIS     0.80E-01    1.4     0.00014269     -5776.1613654264 -4.73E-02
    28 OT DIIS     0.80E-01    1.5     0.00013673     -5776.1841053442 -2.27E-02
    29 OT DIIS     0.80E-01    1.5     0.00013202     -5776.2350939257 -5.10E-02
    30 OT DIIS     0.80E-01    1.5     0.00013091     -5776.2389020647 -3.81E-03
    31 OT DIIS     0.80E-01    1.5     0.00012616     -5776.2436701229 -4.77E-03
    32 OT DIIS     0.80E-01    1.5     0.00012002     -5776.2642766067 -2.06E-02
    33 OT DIIS     0.80E-01    1.5     0.00010503     -5776.3315352100 -6.73E-02
    34 OT DIIS     0.80E-01    1.5     0.00009966     -5776.3548396484 -2.33E-02
    35 OT DIIS     0.80E-01    1.5     0.00009099     -5776.3975196299 -4.27E-02
    36 OT DIIS     0.80E-01    1.5     0.00008728     -5776.4135429037 -1.60E-02
    37 OT DIIS     0.80E-01    1.5     0.00009717     -5776.4275146742 -1.40E-02
    38 OT DIIS     0.80E-01    1.5     0.00008559     -5776.4463554900 -1.88E-02
    39 OT DIIS     0.80E-01    1.5     0.00008098     -5776.4533994868 -7.04E-03
    40 OT DIIS     0.80E-01    1.5     0.00008069     -5776.4570782190 -3.68E-03

  Leaving inner SCF loop after reaching    40 steps.


  Electronic density on regular grids:      -1534.9999999999        0.0000000001
  Core density on regular grids:             1535.9999999995       -0.0000000005
  Total charge density on r-space grids:        0.9999999996
  Total charge density g-space grids:           0.9999999996

  Overlap energy of the core charge distribution:               0.00000000000320
  Self energy of the core charge distribution:             -12156.89556134359555
  Core Hamiltonian energy:                                   3278.84088086156680
  Hartree energy:                                            4014.82684162598935
  Exchange-correlation energy:                               -925.32835914942211

  DFT+U energy:                                                12.09911978646658

  Total energy:                                             -5776.45707821899214

  outer SCF iter =    1 RMS gradient =   0.81E-04 energy =      -5776.4570782190

  ----------------------------------- OT ---------------------------------------
[...]
      -0.38788802     -0.38784481     -0.38765478     -0.38764766
      -0.38753400     -0.38747862     -0.38734957     -0.38536236
      -0.38362926     -0.38080135     -0.37945274     -0.37940590
      -0.37902999     -0.37888393     -0.37780524     -0.37718111
      -0.37699477     -0.37635311     -0.37618279     -0.37595835
      -0.37567687     -0.37544935     -0.37529503     -0.37492130
      -0.37475264     -0.37464603     -0.37458414     -0.37447847
      -0.37373490     -0.37356644     -0.37339058     -0.37336773
      -0.37320848     -0.37264486     -0.37255431     -0.37239748
      -0.37219062     -0.37216532     -0.37202485     -0.37152858
      -0.37061619     -0.37041714     -0.37040158     -0.37026942
      -0.37011523     -0.37000319     -0.36995674     -0.36981857
      -0.36919970     -0.36904436     -0.36883405     -0.36857305
      -0.36807912     -0.36778653     -0.36766246     -0.36759749
      -0.36752941     -0.36743559     -0.36727936     -0.36723829
      -0.36721478     -0.36652402     -0.36630030     -0.36599335
      -0.36566727     -0.36520569     -0.36512965     -0.36451533
      -0.36441945     -0.36400418     -0.36397080     -0.36373346
      -0.36355385     -0.36349330     -0.36335191     -0.36333092
      -0.36326148     -0.36318386     -0.36313113     -0.36285229
      -0.36281765     -0.36271984     -0.36270664     -0.36264258
      -0.36262473     -0.36252536     -0.36245627     -0.36230013
      -0.36050392     -0.36033532     -0.36021389     -0.36013875
      -0.35981482     -0.35937559     -0.35911677     -0.35902460
      -0.01761304      0.01914019      0.02374215      0.02605398
       0.02689653      0.02697787      0.02721844      0.02735007
       0.02744986      0.02764759      0.02849643      0.02878509
       0.02885859      0.02889288      0.02890366      0.02926817
       0.02940264      0.02943070      0.02948796      0.02992054
       0.03003189      0.03018781      0.03021416      0.03040168
       0.03049726      0.03071535      0.03090252      0.03094593
       0.03100524      0.03138060      0.03151334      0.03169959
       0.03197030      0.03244201      0.03278011      0.03279573
       0.03291392      0.03307140      0.03315529      0.03320695
       0.03356207      0.03373894      0.03376805      0.03395227
       0.03430887      0.03558131      0.03585642      0.03588226
       0.03599702      0.03730293      0.03920261      0.03968057
       0.04011013      0.04026041      0.04048168      0.04060680
       0.04102649      0.04132952      0.04173953      0.04177621
       0.04190017      0.04196091      0.04198854      0.04205802
       0.04210043      0.04226604      0.04286939      0.04347568
       0.04383704      0.04448596      0.04524758      0.04562503
       0.04583799      0.04698652      0.04936731      0.04949954
       0.05169490      0.05187935      0.05204920      0.05216219
       0.05236328      0.05265063      0.05278191      0.05326452
       0.05349388      0.05356693      0.05369993      0.05405966
       0.05474245      0.05514191      0.05522033      0.05541005
       0.05543486      0.05566749      0.05611832      0.05647570
       0.05658686      0.05705246      0.05720594      0.05730404
       0.05742587      0.05762498      0.05780672      0.05807660
       0.05814815      0.05832116      0.05836021      0.05840478
       0.05857789      0.05927980      0.05948204      0.05957875
       0.06300500      0.06447108      0.06486370      0.06532097
       0.06573441      0.06580925      0.06604010      0.06610576
       0.06624402      0.06635075      0.06642730      0.06650770
       0.06667059      0.06756108      0.06762153      0.06810326
       0.06842989      0.07303880      0.07394433      0.07427848
       0.07451861      0.07679110      0.07701657      0.07707453
       0.07720449      0.07836081      0.07868681      0.07886342
       0.07889580      0.07895023      0.07906875      0.07951802
       0.07961711      0.07971927      0.07984485      0.08006240
       0.08027987      0.08047549      0.08066522      0.08077408
       0.08277951      0.08638840      0.08686998      0.08719633
       0.08753399      0.08778817      0.08792764      0.08807286
       0.08833685      0.08852044      0.08853510      0.08865742
       0.09108843      0.09191103      0.09346358      0.09356954
       0.09364718      0.09434015      0.09448156      0.09452288
       0.09473285      0.09491852      0.09743269      0.09791644
       0.09838478      0.09850087      0.09857538      0.09943284
       0.09964709      0.09968032      0.09983393      0.10017934
       0.10028789      0.10035433      0.10041344      0.10060562
       0.10070358      0.10096660      0.10134117      0.10149028
       0.10175180      0.10249921      0.10303999      0.10306668
       0.10403206      0.10457817      0.10478236      0.10488163
       0.10507141      0.10541398      0.10556300      0.10595122
       0.10616934      0.10631101      0.10722031      0.10748853
       0.10786805      0.10862866      0.10883731      0.10912376
       0.10922349      0.10942216      0.10947170      0.10962809
       0.10975468      0.11017242      0.11050958      0.11073997
       0.11096112      0.11131805      0.11156669      0.11182270
       0.11196956      0.11204315      0.11235518      0.11243645
       0.11259414      0.11265628      0.11302849      0.11309968
       0.11323827      0.11371913      0.11398199      0.11423565
       0.11474249      0.11478044      0.11563147      0.11571967
       0.11580249      0.11592227      0.11596255      0.11634396
       0.11656181      0.11671682      0.11692807      0.11704842
       0.11781773      0.11818377      0.11870772      0.11895123
       0.11915633      0.11985027      0.12020878      0.12083280
       0.12120780      0.12415510      0.12425687      0.12428405
       0.12483207      0.12568833      0.13160954      0.13311767
       0.13446243      0.13455979      0.13489364      0.13529155
       0.13557796      0.13586994      0.13818109      0.13880667
       0.14074287      0.14084715      0.14106674      0.14143947
       0.14157633      0.14164005      0.14175224      0.14280248
       0.14293401      0.14331462      0.14399849      0.14404564
       0.14411622      0.14461210      0.14536124      0.14544210
       0.14551087      0.14574347      0.14578968      0.14587865
       0.14636190      0.14688763      0.14708930      0.14738069
       0.14759998      0.14913300      0.14953699      0.15025893
       0.15039237      0.15052022      0.15096920      0.15102870
       0.15124722      0.15130345      0.15171653      0.15205344
       0.15221298      0.15302104      0.15395365      0.15456999
       0.15497509      0.15525460      0.15619708      0.15638276
       0.15650553      0.15663762      0.15805918      0.15929334
       0.15935363      0.15978063      0.16077884      0.16128608
       0.16153059      0.16158047      0.16162715      0.16180065
       0.16204072      0.16238873      0.16261364      0.16291489
       0.16346153      0.16391768      0.16407298      0.16411322
       0.16438582      0.16461003      0.16514249      0.16559057
       0.16576852      0.16642444      0.16661722      0.16676447
       0.16695649      0.16718897      0.16753983      0.16767582
       0.16786319      0.16805039      0.16832791      0.16842599
       0.16868967      0.16876255      0.16921152      0.17016593
       0.17056909      0.17078275      0.17088674      0.17096099
       0.17100262      0.17111027      0.17121823      0.17180586
       0.17218650      0.17228087      0.17466749      0.17617515
       0.17623936      0.17669883      0.17707622      0.17724464
       0.17754361      0.17761970      0.17808054      0.17816894
       0.17830120      0.17837436      0.18241883      0.18290441
       0.18300624      0.18327929      0.18354628      0.18397390
 Fermi Energy [eV] :    5.006185
  
  Eigenvalues of the occupied subspace spin            2
 ---------------------------------------------
      -1.93870615     -1.93734025     -1.93729618     -1.93712906
      -1.93681659     -1.93679263     -1.93660674     -1.93649724
      -1.93639348     -1.93633941     -1.93627372     -1.93621595
      -1.93616790     -1.93611063     -1.93607880     -1.93603231
      -1.93594043     -1.93590768     -1.93587512     -1.93584980
      -1.93578760     -1.93576338     -1.93573612     -1.93571701
      -1.93562976     -1.93559234     -1.93556829     -1.93553920
      -1.93550245     -1.93546131     -1.93541692     -1.93537917
      -1.93536146     -1.93531762     -1.93526450     -1.93524209
      -1.93520258     -1.93519350     -1.93513862     -1.93511772
      -1.93508825     -1.93504342     -1.93498032     -1.93496214
      -1.93493814     -1.93488823     -1.93485153     -1.93482818
      -1.93479158     -1.93472455     -1.93470563     -1.93462435
      -1.93459666     -1.93458205     -1.93449556     -1.93448415
      -1.93444985     -1.93436008     -1.93434381     -1.93425255
      -1.93414588     -1.93409349     -1.93407407     -1.93390669
      -1.01689707     -1.01606162     -1.01576191     -1.01567980
      -1.01522743     -1.01512232     -1.01495265     -1.01485145
      -1.01471944     -1.01465166     -1.01453525     -1.01446504
      -1.01434814     -1.01424054     -1.01410931     -1.01405430
      -1.01398048     -1.01393745     -1.01391075     -1.01380687
      -1.01379707     -1.01349789     -1.01341239     -1.01332991
      -1.01319619     -1.01272918     -1.01261441     -1.01231306
      -1.01202187     -1.01196932     -1.01185191     -1.01174425
      -1.01168911     -1.01163349     -1.01161473     -1.01158491
      -1.01142134     -1.01141627     -1.01139574     -1.01135765
      -1.01132429     -1.01131619     -1.01119724     -1.01115159
      -1.01105497     -1.01086334     -1.01068634     -1.01049583
      -1.01031859     -1.01023855     -1.00994816     -1.00989362
      -1.00987850     -1.00973446     -1.00968747     -1.00945598
      -1.00944743     -1.00934566     -1.00901826     -1.00895356
      -1.00891932     -1.00887177     -1.00885165     -1.00868942
      -1.00862356     -1.00858459     -1.00848424     -1.00844685
      -1.00841560     -1.00838633     -1.00829507     -1.00819807
      -1.00815513     -1.00807416     -1.00805854     -1.00801889
      -1.00793483     -1.00792023     -1.00786968     -1.00779579
      -1.00774347     -1.00773496     -1.00768931     -1.00768013
      -1.00759513     -1.00757493     -1.00755092     -1.00748637
      -1.00745096     -1.00742489     -1.00740740     -1.00736604
      -1.00729189     -1.00727252     -1.00721759     -1.00717410
      -1.00714312     -1.00713903     -1.00708950     -1.00706004
      -1.00701953     -1.00699728     -1.00696932     -1.00691917
      -1.00687244     -1.00684201     -1.00680837     -1.00676051
      -1.00671279     -1.00663705     -1.00663111     -1.00654985
      -1.00650850     -1.00645080     -1.00643665     -1.00638033
      -1.00629308     -1.00625119     -1.00619226     -1.00616963
      -1.00611979     -1.00610815     -1.00603778     -1.00565571
      -1.00559694     -1.00554934     -1.00530949     -1.00516908
      -1.00511150     -1.00486235     -1.00482832     -1.00463776
      -1.00453025     -1.00449581     -1.00443402     -1.00435297
      -1.00425288     -1.00419928     -1.00415690     -1.00411520
      -1.00407115     -1.00403846     -1.00394003     -1.00391967
      -1.00389388     -1.00378240     -1.00376789     -1.00373668
      -1.00370939     -1.00369703     -1.00365250     -1.00363969
      -1.00361838     -1.00354591     -1.00351834     -1.00348829
      -1.00342050     -1.00339613     -1.00334444     -1.00326759
      -1.00324094     -1.00321686     -1.00315273     -1.00314639
      -1.00308834     -1.00299237     -1.00295752     -1.00289987
      -1.00287852     -1.00285613     -1.00280059     -1.00270136
      -1.00254572     -1.00252874     -1.00243442     -1.00235508
      -1.00232917     -1.00220968     -1.00219093     -1.00215456
      -1.00205374     -1.00200918     -1.00186973     -1.00184543
      -1.00183275     -1.00166435     -1.00155863     -1.00140351
      -1.00125985     -1.00116593     -1.00104672     -1.00092561
      -0.42422770     -0.41523842     -0.41496896     -0.41487756
      -0.41459529     -0.40529516     -0.40471879     -0.40417123
      -0.40407949     -0.40365387     -0.40345864     -0.40324634
      -0.40312360     -0.40285698     -0.40246761     -0.40125275
      -0.40118721     -0.40109044     -0.40103853     -0.39250795
      -0.39173430     -0.39078652     -0.39066327     -0.39056972
      -0.39031114     -0.39027657     -0.39011835     -0.38952736
      -0.38915203     -0.38886242     -0.38856373     -0.38789747
      -0.38784959     -0.38765870     -0.38764138     -0.38743958
      -0.38738350     -0.38733503     -0.38730891     -0.38392537
      -0.38128406     -0.37958535     -0.37908991     -0.37898512
      -0.37873928     -0.37756684     -0.37710377     -0.37654752
      -0.37615754     -0.37589582     -0.37565762     -0.37558361
      -0.37542095     -0.37525312     -0.37479551     -0.37478027
      -0.37463720     -0.37461038     -0.37446291     -0.37363090
      -0.37359430     -0.37336757     -0.37322471     -0.37274702
      -0.37250965     -0.37238350     -0.37215294     -0.37213883
      -0.37207461     -0.37198090     -0.37176081     -0.37063152
      -0.37046794     -0.37014014     -0.37004874     -0.37001976
      -0.36986381     -0.36981108     -0.36971737     -0.36924661
      -0.36870134     -0.36865885     -0.36855276     -0.36795126
      -0.36780407     -0.36764684     -0.36751436     -0.36743765
      -0.36737658     -0.36726139     -0.36721583     -0.36719944
      -0.36631505     -0.36595201     -0.36581679     -0.36565469
      -0.36521764     -0.36474526     -0.36464738     -0.36429743
      -0.36394035     -0.36372398     -0.36357651     -0.36340981
      -0.36326932     -0.36323951     -0.36317408     -0.36311173
      -0.36307495     -0.36296502     -0.36289839     -0.36276900
      -0.36267949     -0.36263928     -0.36262794     -0.36252129
      -0.36246610     -0.36237316     -0.36227205     -0.36061985
      -0.36030274     -0.36016376     -0.36006112     -0.35983634
      -0.35915217     -0.35909636     -0.35897230     -0.35091903
       0.02580356      0.02607030      0.02678252      0.02707159
       0.02725687      0.02729047      0.02756830      0.02774886
       0.02862555      0.02887944      0.02890366      0.02898192
       0.02905687      0.02942942      0.02948961      0.02950474
       0.02983095      0.02996544      0.02999549      0.03021702
       0.03025958      0.03048135      0.03056865      0.03072778
       0.03098670      0.03109326      0.03121281      0.03136087
       0.03154245      0.03183895      0.03213360      0.03226205
       0.03272177      0.03284729      0.03289330      0.03296043
       0.03307730      0.03317905      0.03320770      0.03326576
       0.03363713      0.03388775      0.03391948      0.03401066
       0.03595157      0.03599711      0.03607993      0.03639741
       0.03854454      0.03918919      0.04013752      0.04017955
       0.04063077      0.04070377      0.04081572      0.04136600
       0.04178834      0.04185166      0.04189700      0.04198089
       0.04208049      0.04209234      0.04216556      0.04236999
       0.04300119      0.04339932      0.04359411      0.04368661
       0.04515929      0.04565401      0.04577795      0.04588014
       0.04700153      0.05071768      0.05103083      0.05193708
       0.05219211      0.05220340      0.05249529      0.05252976
       0.05282761      0.05326069      0.05335927      0.05357751
       0.05368983      0.05372707      0.05398408      0.05518577
       0.05524616      0.05544368      0.05548508      0.05601354
       0.05611070      0.05628315      0.05678125      0.05680527
       0.05702215      0.05719607      0.05760074      0.05772722
       0.05782959      0.05794351      0.05797052      0.05822358
       0.05833334      0.05837908      0.05840875      0.05898742
       0.05938349      0.05942102      0.05960518      0.06454482
       0.06490566      0.06564054      0.06582882      0.06588019
       0.06599573      0.06606628      0.06626398      0.06633437
       0.06636286      0.06640342      0.06653380      0.06663699
       0.06762481      0.06773871      0.06814160      0.06842505
       0.07370578      0.07400489      0.07444333      0.07466739
       0.07701950      0.07767967      0.07779422      0.07797121
       0.07868794      0.07883016      0.07908107      0.07925748
       0.07927254      0.07935416      0.07957770      0.07978097
       0.07993662      0.08016039      0.08032604      0.08047295
       0.08064595      0.08078667      0.08083111      0.08180992
       0.08711321      0.08717827      0.08773376      0.08780743
       0.08790171      0.08810958      0.08818583      0.08860771
       0.08878201      0.08885655      0.08900971      0.09026503
       0.09355367      0.09361362      0.09370862      0.09378363
       0.09461988      0.09469768      0.09474979      0.09507694
       0.09735430      0.09783103      0.09831024      0.09844561
       0.09899782      0.09967357      0.09977786      0.09985210
       0.09999773      0.10004004      0.10031470      0.10035777
       0.10052967      0.10057999      0.10068133      0.10078093
       0.10133338      0.10148658      0.10172825      0.10178972
       0.10325045      0.10417606      0.10438906      0.10445373
       0.10459974      0.10498743      0.10559372      0.10565358
       0.10588376      0.10621557      0.10625720      0.10651488
       0.10658313      0.10716832      0.10819114      0.10830704
       0.10914791      0.10921557      0.10925844      0.10935290
       0.10950293      0.10954831      0.10965621      0.10977305
       0.11041581      0.11071275      0.11104600      0.11139939
       0.11141044      0.11198296      0.11204432      0.11219761
       0.11243154      0.11247521      0.11260681      0.11273606
       0.11312228      0.11329569      0.11336058      0.11365023
       0.11407828      0.11426298      0.11443327      0.11483788
       0.11506231      0.11589013      0.11591578      0.11614586
       0.11626535      0.11639642      0.11659071      0.11662723
       0.11698404      0.11778643      0.11822139      0.11863208
       0.11866130      0.11871961      0.11913380      0.11922257
       0.11939989      0.12121951      0.12129959      0.12140530
       0.12322728      0.12441420      0.12478855      0.12493310
       0.12498653      0.13391248      0.13461856      0.13545081
       0.13548668      0.13561562      0.13600004      0.13627004
       0.13769896      0.13817554      0.13941673      0.14089956
       0.14110059      0.14159333      0.14167469      0.14174509
       0.14254757      0.14264163      0.14267407      0.14377585
       0.14431398      0.14451087      0.14472123      0.14488994
       0.14547632      0.14553052      0.14582858      0.14586862
       0.14596609      0.14611125      0.14635819      0.14651037
       0.14742441      0.14777735      0.14781769      0.14808699
       0.14885135      0.15026620      0.15073049      0.15082581
       0.15108039      0.15122248      0.15123901      0.15135919
       0.15142844      0.15256383      0.15268012      0.15299353
       0.15385379      0.15514645      0.15560352      0.15618259
       0.15644467      0.15650511      0.15670673      0.15693317
       0.15714779      0.15817987      0.15891088      0.15993254
       0.16036365      0.16084664      0.16156234      0.16159975
       0.16161751      0.16166654      0.16256290      0.16262376
       0.16324321      0.16365518      0.16407957      0.16413711
       0.16431271      0.16436465      0.16458129      0.16504411
