     192
 i =        7, E =     -5776.8102255560
Ti         0.0014728731        0.0350122608       -0.0083547000
Ti         1.8899324070        1.8910164696        4.8069574669
Ti         0.0019735549        1.8890454426        2.4064451177
Ti         1.8914479145        0.0047501196        7.2084634262
Ti         0.0017304796        3.7838602136       -0.0012047103
Ti         1.8952406621       13.2386719923        4.8071444703
Ti        11.3482631952        1.8899598866        2.4058949867
Ti         5.6693689946        0.0020995149        7.2155422539
Ti         1.8896597928        3.7776374547        7.2104870645
Ti         0.0046074689       13.2400234931        2.4269312943
Ti         5.6695228660        1.8890019592        4.8033968061
Ti        11.3431330756        0.0142211297       -0.0034391652
Ti         3.7846218462        0.0025402323       -0.0004052901
Ti        13.2368284146        1.8927545527        4.8074769117
Ti        13.2361037560        0.0121880243        7.2070458214
Ti         3.7780726976        1.8898709886        2.4057395714
Ti         1.8894389441        5.6681284045        4.8110783820
Ti         0.0509223387       11.3273444432        0.0089235758
Ti         0.0022346550        5.6677998363        2.4003850023
Ti         1.8894305332       11.3483483022        7.2041681666
Ti         0.0045651483        7.5545019546        0.0021666585
Ti         1.8923571959        9.4596185097        4.8090033639
Ti         7.5690923233        1.8893769949        2.4082351923
Ti         9.4602106841        0.0043354429        7.2127360395
Ti         1.8904570124        7.5662242706        7.2066004000
Ti         0.0061032018        9.4595592597        2.4081392248
Ti         9.4610615166        1.8896585141        4.8060267075
Ti         7.5679853806        0.0026600183       -0.0043671427
Ti         3.7770028167        3.7776920660       -0.0004148360
Ti        13.2344396506       13.2449716211        4.8063975577
Ti        11.3493769405        5.6680375615        2.4021414359
Ti         5.6692845970       11.3500965500        7.2123121796
Ti        13.2372046981        3.7775409286        7.2103148052
Ti         3.7830618277       13.2384758985        2.4062077882
Ti         5.6688601225        5.6685273058        4.8076021647
Ti        11.2970689747       11.3559508513        0.0122881370
Ti        11.3423755306       13.2406833636        2.4128932900
Ti         5.6692139180        3.7764853340        7.2140457734
Ti         3.7938579553       11.3490223069        0.0044302246
Ti        13.2377022352        5.6658039492        4.8115996383
Ti         5.6702640838       13.2379478467        4.8032370029
Ti        11.3492947095        3.7752705168       -0.0015335166
Ti        13.2370975209       11.3491844124        7.1695202500
Ti         3.7771008607        5.6682223907        2.4010416227
Ti         3.7782676129        7.5679667007        0.0037531532
Ti        13.2381513274        9.4535823641        4.8083380320
Ti         7.5688480502        5.6679572794        2.4041607728
Ti         9.4619802287       11.3505372574        7.2057132828
Ti        13.2377254863        7.5592288848        7.2041899876
Ti         3.7797701204        9.4606903562        2.4030906889
Ti         9.4612321763        5.6674385344        4.8102877580
Ti         7.5538828679       11.3505055850        0.0015027303
Ti        11.3464821120        9.4589740561        2.4136309089
Ti         5.6690360172        7.5688522721        7.2102386095
Ti         5.6688500484        9.4617864095        4.8056567557
Ti        11.3491705237        7.5516376794       -0.0004146040
Ti         9.4611849966        3.7761739373        7.2114341493
Ti         7.5665481513       13.2388191606        2.4084016706
Ti         7.5694517549        3.7759458387       -0.0032317423
Ti         9.4575923983       13.2394652844        4.8056558494
Ti         7.5659735449        7.5684997745        0.0011911607
Ti         9.4577391858        9.4606916149        4.8082630498
Ti         7.5659711069        9.4611280824        2.4062942271
Ti         9.4600717664        7.5667215723        7.2062835454
O        -0.0000859879       -0.0077731213        1.9750503583
O         1.8819630629        1.8872802635        6.7964626603
O         0.0011841919        1.8809040453        4.3936213138
O         1.8850290300       -0.0173588698        9.2043962662
O         1.8812827258        0.0009531417        5.2213801205
O        -0.0006655584        1.8996223460        0.4205315652
O         1.8866294572        1.8801478232        2.8176507569
O         0.0007514696       -0.0090040078        7.6265964588
O        -0.0004596081        3.7741017011        1.9826925509
O         1.8760273969       13.2361191596        6.7999041375
O        11.3517712196        1.8819554116        4.3925538797
O         5.6738197054       -0.0011770614        9.1987517554
O         1.8830542424        3.7759245406        5.2267247557
O        -0.0280310211       13.2337742897        0.3967495447
O         5.6721633114        1.8832079756        2.8180077359
O        11.3535596847       -0.0056472119        7.6282682249
O         3.7734241872       -0.0014244122        7.6333462793
O        13.2370760187        1.8785882665        2.8168904947
O        13.2369259721       -0.0224573539        9.2039212464
O         3.7752994517        1.8829295857        4.3891503578
O         1.8825676468        5.6723282021        6.7964008600
O        -0.0093767986       11.3576126752        1.9820963239
O        -0.0014206090        5.6711136303        0.4183545545
O         1.8792858290       11.3512406008        5.2201073655
O        -0.0015912521        7.5705014868        1.9850950926
O         1.8774641505        9.4632894874        6.7954601263
O         7.5671574082        1.8833338853        4.3929975727
O         9.4627714986       -0.0055332437        9.1967618417
O         1.8821441934        7.5674054007        5.2224797677
O        -0.0228078585        9.4547999948        0.4157926763
O         9.4634233945        1.8824438748        2.8213840045
O         7.5673855365       -0.0016679627        7.6271583682
O         3.7650200284        0.0010203498        1.9888662583
O        13.2388718964        1.8898677283        6.7950079430
O         0.0012377841        5.6576570432        4.3926515039
O         1.9078385584       11.3626129785        9.1945192157
O        13.2390214040        0.0030217377        5.2231224894
O         3.7647554450        1.8864819082        0.4139615238
O         1.8868002412        5.6573547386        2.8181654644
O        -0.0123132806       11.3587546423        7.6443674704
O        11.3576393901        1.8891286519        0.4174342603
O         5.6550409706        0.0008717329        5.2222953116
O         5.6551035918        1.8868661665        6.7965003602
O        11.3576577266       -0.0019520727        1.9839448249
O         1.8867757436        3.7677304345        9.2007344898
O         0.0013367364       13.2351642541        4.4045161884
O         0.0013991370        3.7681426906        7.6243499123
O         1.8879353615       13.2358764181        2.8151506589
O         3.7682497704        3.7753192280        1.9850848456
O        13.2395938619       13.2380265284        6.8052203712
O        11.3517518127        5.6582011997        4.3932921538
O         5.6723652563       11.3544282769        9.1943042738
O        13.2381156318        3.7757740547        5.2285182203
O         3.7614245703       13.2365791827        0.4134878452
O         5.6720172429        5.6569653139        2.8175955900
O        11.3661932364       11.3524717291        7.6465624930
O        11.3831708531       13.2379556853        0.4089227753
O         5.6558127237        3.7756609813        5.2255545617
O         3.7718323610       11.3546272201        7.6333724231
O        13.2369587198        5.6593505112        2.8172541805
O         5.6546896206       13.2364766765        6.7974905250
O        11.3554339750        3.7758284017        1.9833880047
O        13.2382466916       11.3647841972        9.2264915766
O         3.7752493003        5.6569742080        4.3894287865
O         5.6560968047        5.6725360106        6.7976166100
O        11.3649906468       11.3501933799        1.9876398770
O        13.2369349066        3.7681605101        9.2012394877
O         3.7766814402       13.2367542119        4.3871687126
O        11.3554923637        5.6672410053        0.4174267028
O         5.6554495435       11.3512917938        5.2222735357
O         3.7754757719        3.7687075839        7.6293350219
O        13.2360573956       13.2326241216        2.8108396254
O        13.2385026629       11.3512295396        5.1998175355
O         3.7679379634        5.6726664400        0.4140709457
O         5.6730925753       13.2367866203        2.8198847384
O        11.3515189900        3.7690199535        7.6249812922
O         3.7647393130       11.3516935400        1.9914051492
O        13.2378244671        5.6701617173        6.7952673793
O        11.3507584099       13.2345770137        4.3946561734
O         5.6719993169        3.7689277375        9.2015752593
O         3.7674569742        7.5673041496        1.9898177562
O        13.2378335398        9.4619449981        6.8005038958
O         7.5670939184        5.6572279989        4.3935505938
O         9.4411583549       11.3527312565        9.1895910268
O        13.2377607104        7.5652407957        5.2234616373
O         3.7652020087        9.4632658757        0.4165821471
O         9.4636054593        5.6584779228        2.8207886315
O         7.5703035164       11.3539927617        7.6289536970
O        11.3823438656        9.4662391696        0.4074655798
O         5.6560889201        7.5675468237        5.2210921254
O         5.6559842415        9.4635167802        6.7946744795
O        11.3552455953        7.5719111089        1.9822523975
O         9.4635898836        3.7694803530        9.1978179198
O         7.5668370998       13.2365349040        4.3911820250
O         7.5669718717        3.7695236184        7.6254591710
O         9.4614852095       13.2347664996        2.8212931753
O         7.5846742639        0.0012054623        1.9887789543
O         9.4715254001        1.8871710291        6.7962158230
O         0.0014972939        9.4737040237        4.3951954821
O         1.8868275718        7.5884118838        9.2005127106
O         9.4720444396        0.0009446171        5.2227944105
O         7.5841886280        1.8868305628        0.4150826337
O         1.8877404570        9.4740463062        2.8171788443
O         0.0002251540        7.5891310055        7.6259516659
O         7.5834496774        3.7758154751        1.9851607114
O         9.4770803005       13.2363826823        6.7989351314
O        11.3517387573        9.4727783969        4.3979704649
O         5.6715106285        7.5843289353        9.2000261421
O         9.4705764566        3.7755526716        5.2259723568
O         7.5865018798       13.2366342848        0.4140801484
O         5.6718276166        9.4706278064        2.8189414093
O        11.3521414683        7.5900820778        7.6261755402
O         3.7751245656        7.5848962518        7.6302423261
O        13.2374816978        9.4767673508        2.8125650654
O        13.2369755593        7.5973245976        9.2020848362
O         3.7754682889        9.4708811145        4.3882099610
O         9.4711318611        5.6722442394        6.7974741935
O         7.5861580168       11.3511241963        1.9913864787
O         7.5848780834        5.6726488930        0.4134364908
O         9.4742660281       11.3513628103        5.2199097957
O         7.5850567146        7.5672659246        1.9897886992
O         9.4763392629        9.4637891097        6.7963252175
O         7.5664812482        9.4705236149        4.3922771738
O         9.4646743566        7.5920883350        9.1993851568
O         9.4716494533        7.5674944899        5.2210579702
O         7.5871878669        9.4633720821        0.4167508530
O         9.4629466934        9.4718609638        2.8195328337
O         7.5679950032        7.5845236220        7.6269778750
     192
 i =        8, E =     -5776.8194223326
Ti         0.0006073341        0.0476129375       -0.0163068849
Ti         1.8911798252        1.8916288999        4.8076162223
Ti         0.0035335917        1.8946359136        2.4071275778
Ti         1.8938772280        0.0035839560        7.2087149190
Ti         0.0027086193        3.7819396896        0.0015435626
Ti         1.8994457923       13.2410378149        4.8082017669
Ti        11.3486963089        1.8919598471        2.4073316665
Ti         5.6700206596        0.0039403844        7.2161220013
Ti         1.8904133682        3.7760317785        7.2090905879
Ti         0.0033991174       13.2455704990        2.4349131915
Ti         5.6694262306        1.8895269678        4.8029306100
Ti        11.3470513762        0.0187250867       -0.0059877251
Ti         3.7823569930        0.0025244104       -0.0003749999
Ti        13.2366324169        1.8966649343        4.8061189437
Ti        13.2345277057        0.0168383124        7.2049709990
Ti         3.7774118786        1.8903019780        2.4056798159
Ti         1.8908350080        5.6671582361        4.8117795786
Ti         0.1410699932       11.3247059092        0.0350273038
Ti         0.0030132658        5.6670151029        2.4030266984
Ti         1.8949218803       11.3514270183        7.1966716426
Ti         0.0034899932        7.5509469299        0.0023176371
Ti         1.8958507477        9.4575512673        4.8091780618
Ti         7.5681629941        1.8900121003        2.4088641779
Ti         9.4577833555        0.0055179083        7.2125239174
Ti         1.8923497060        7.5661064401        7.2052967998
Ti         0.0046334177        9.4492046723        2.4140470084
Ti         9.4596908646        1.8909165402        4.8057509807
Ti         7.5676238651        0.0040264145       -0.0056415403
Ti         3.7770002426        3.7767391310       -0.0002540506
Ti        13.2337002224       13.2570864259        4.8014130192
Ti        11.3484451919        5.6661525447        2.4017106431
Ti         5.6702222205       11.3504999874        7.2047654801
Ti        13.2368815741        3.7761339384        7.2098379156
Ti         3.7805935766       13.2397865489        2.4076696167
Ti         5.6692379311        5.6682174761        4.8076206797
Ti        11.2034146146       11.3555062237        0.0418490402
Ti        11.3462690265       13.2491194644        2.4213426421
Ti         5.6692682807        3.7764533768        7.2140246758
Ti         3.8112474489       11.3506258792        0.0066785936
Ti        13.2369710197        5.6617279069        4.8106105106
Ti         5.6702059356       13.2389671123        4.8032456656
Ti        11.3492264373        3.7750713030       -0.0000494966
Ti        13.2366930588       11.3519669470        7.1072011736
Ti         3.7778829775        5.6676912681        2.4009773891
Ti         3.7784585469        7.5673993185        0.0037237473
Ti        13.2378989820        9.4408259295        4.8027821668
Ti         7.5685166714        5.6675319291        2.4041764805
Ti         9.4573428790       11.3499704422        7.1975180956
Ti        13.2379351210        7.5535984429        7.2026052883
Ti         3.7794919012        9.4592383947        2.4043946838
Ti         9.4598665356        5.6669481279        4.8105136745
Ti         7.5320490633       11.3503952984        0.0033719384
Ti        11.3485153833        9.4540593373        2.4179442292
Ti         5.6692005756        7.5674180663        7.2103450657
Ti         5.6689454609        9.4606581522        4.8057804262
Ti        11.3507153229        7.5466375859       -0.0027804821
Ti         9.4602479050        3.7767312151        7.2108959322
Ti         7.5661834071       13.2402946085        2.4104257263
Ti         7.5687953392        3.7764302504       -0.0032799562
Ti         9.4533425264       13.2417607314        4.8050740634
Ti         7.5667367234        7.5678683297        0.0009648537
Ti         9.4543467918        9.4581033515        4.8076573928
Ti         7.5666657645        9.4595644821        2.4079665832
Ti         9.4585205057        7.5665273171        7.2067942730
O         0.0053911168       -0.0092215329        1.9637077109
O         1.8831308916        1.8826146233        6.7979707100
O         0.0005243667        1.8846184487        4.3908925264
O         1.8759789485       -0.0127470725        9.2070322273
O         1.8862130083       -0.0007849395        5.2248355516
O        -0.0025851687        1.8905210936        0.4156749733
O         1.8838666941        1.8837516942        2.8192845066
O        -0.0017781638        0.0094331593        7.6258262534
O         0.0006104047        3.7769844120        1.9868072569
O         1.8802173166       13.2327968560        6.7967288171
O        11.3529647095        1.8844800395        4.3918674537
O         5.6716003005       -0.0017589078        9.2023165892
O         1.8842488859        3.7752897534        5.2253604033
O        -0.0725418164       13.2167675301        0.3756289884
O         5.6711457031        1.8838414995        2.8172592820
O        11.3548096740        0.0037500490        7.6286353215
O         3.7724087329        0.0015301030        7.6332742740
O        13.2385242688        1.8818307623        2.8178714185
O        13.2400468637       -0.0121978747        9.2020181277
O         3.7741703493        1.8851314344        4.3885966813
O         1.8830224958        5.6737300507        6.7987932379
O         0.0058813724       11.3555083179        1.9856250267
O        -0.0012221508        5.6732851155        0.4147334110
O         1.8832339527       11.3519124565        5.2216075290
O         0.0052403896        7.5720978842        1.9839620553
O         1.8770314612        9.4699512886        6.7968505974
O         7.5678871523        1.8841294360        4.3933221670
O         9.4705956458       -0.0054446371        9.2003617212
O         1.8845750326        7.5696538433        5.2223155444
O        -0.0462940036        9.4729361904        0.4032082495
O         9.4657433174        1.8832397980        2.8210306077
O         7.5691686823       -0.0001643206        7.6255372169
O         3.7735101133       -0.0002916892        1.9880286337
O        13.2373915275        1.8852594308        6.7973316318
O         0.0004656551        5.6582538251        4.3927652536
O         1.9309134923       11.3451008485        9.1882649716
O        13.2358054449        0.0034540086        5.2262549714
O         3.7685834697        1.8836919124        0.4130420103
O         1.8852675313        5.6584735060        2.8186428262
O        -0.0316310358       11.3447699095        7.6831602745
O        11.3553215445        1.8842422767        0.4145061141
O         5.6563067729       -0.0000732407        5.2235532131
O         5.6560571847        1.8858871298        6.7962417063
O        11.3457383189       -0.0038344821        1.9789791581
O         1.8845173972        3.7724634264        9.1991712172
O        -0.0003868805       13.2383812934        4.3934802189
O         0.0005878202        3.7715852947        7.6284921560
O         1.8780951120       13.2343437002        2.8156659758
O         3.7693981567        3.7750490018        1.9856331524
O        13.2334123799       13.2309948862        6.8055991340
O        11.3524732947        5.6585208040        4.3912253908
O         5.6704045728       11.3540322485        9.1892698746
O        13.2375196865        3.7752248070        5.2272676190
O         3.7782330931       13.2348144487        0.4166031792
O         5.6720787310        5.6578338424        2.8172706099
O        11.3857782187       11.3525208548        7.6885764014
O        11.4085747645       13.2208655190        0.3984895714
O         5.6564247265        3.7755070969        5.2253343375
O         3.7721483709       11.3515579524        7.6298163372
O        13.2362139028        5.6611406161        2.8180499174
O         5.6558837218       13.2361808948        6.7970272236
O        11.3534771596        3.7750904142        1.9858770821
O        13.2410608030       11.3659308702        9.2793730234
O         3.7746073262        5.6577535067        4.3894025098
O         5.6562998406        5.6732080342        6.7977047091
O        11.3447271952       11.3533613365        1.9925911284
O        13.2374467093        3.7711771379        9.1988993545
O         3.7749588967       13.2364493351        4.3883208655
O        11.3566437803        5.6716131657        0.4125171558
O         5.6562918034       11.3515990045        5.2211109901
O         3.7743582842        3.7707321808        7.6294647156
O        13.2391532276       13.2393491483        2.8149194766
O        13.2365632934       11.3518575279        5.1884986229
O         3.7679942536        5.6735129983        0.4129313007
O         5.6713441366       13.2363243886        2.8165034220
O        11.3526328943        3.7695356249        7.6275803511
O         3.7737442515       11.3518333607        1.9896242345
O        13.2379089248        5.6711956255        6.7984498406
O        11.3528642940       13.2378156142        4.3949173261
O         5.6714752844        3.7696009630        9.2019227556
O         3.7692903331        7.5690831003        1.9893430524
O        13.2392356598        9.4718445994        6.8043092543
O         7.5680357301        5.6575022047        4.3933939689
O         9.4138617722       11.3575401508        9.1837282943
O        13.2382661688        7.5644279713        5.2248487421
O         3.7709934921        9.4666274435        0.4177120157
O         9.4655823553        5.6592011422        2.8212917200
O         7.5721318994       11.3540143895        7.6246112872
O        11.4158873279        9.4833987583        0.3938589389
O         5.6562784837        7.5691377442        5.2217363108
O         5.6563494473        9.4645005697        6.7946891164
O        11.3499257591        7.5765846514        1.9781560876
O         9.4655918351        3.7687147614        9.1973149823
O         7.5677970236       13.2369637591        4.3934276834
O         7.5678670109        3.7693706542        7.6254125777
O         9.4698689019       13.2349438743        2.8173965789
O         7.5836100427       -0.0000593620        1.9870899086
O         9.4707341174        1.8850903402        6.7974167117
O        -0.0001278066        9.4688543175        4.3937622720
O         1.8809482370        7.5876972368        9.2019620266
O         9.4690552763       -0.0005294873        5.2239657184
O         7.5848061489        1.8855409514        0.4146207523
O         1.8802677892        9.4721703663        2.8149029102
O        -0.0010497586        7.5819619577        7.6282806816
O         7.5831971368        3.7756152905        1.9855984598
O         9.4768979710       13.2319036913        6.7988953470
O        11.3539752356        9.4690661868        4.3929971921
O         5.6720083501        7.5850692470        9.2021301287
O         9.4695859295        3.7756608295        5.2251526062
O         7.5825904129       13.2345248138        0.4161002157
O         5.6718998115        9.4704980022        2.8163847228
O        11.3548096097        7.5804069384        7.6266851848
O         3.7735450447        7.5839715773        7.6297388814
O        13.2371941619        9.4687469637        2.8153066470
O        13.2368159807        7.5794544831        9.1994127715
O         3.7741374648        9.4692067130        4.3893170034
O         9.4707949346        5.6748238783        6.7987050041
O         7.5816974965       11.3516046778        1.9890703357
O         7.5841920887        5.6743181719        0.4128326448
O         9.4717130205       11.3517109950        5.2208170403
O         7.5820139244        7.5690584606        1.9891508469
O         9.4756491858        9.4682150165        6.7953518451
O         7.5678420888        9.4700917382        4.3939232368
O         9.4712045814        7.5888188392        9.2020105668
O         9.4688985008        7.5697426173        5.2230266287
O         7.5802903504        9.4659312175        0.4186228811
O         9.4706437372        9.4724478652        2.8175318736
O         7.5697573553        7.5838066015        7.6261978479
     192
 i =        9, E =     -5776.8229093268
Ti        -0.0008579634        0.0314409825       -0.0147133352
Ti         1.8911430159        1.8912826941        4.8072130132
Ti         0.0036769470        1.8923402668        2.4063707428
Ti         1.8927696360        0.0053329571        7.2098162018
Ti         0.0029834840        3.7815855199       -0.0004398366
Ti         1.8975306173       13.2414108740        4.8067830967
Ti        11.3475632681        1.8913576835        2.4064795678
Ti         5.6699205807        0.0044429978        7.2158793905
Ti         1.8903216755        3.7777133803        7.2110352464
Ti         0.0018457049       13.2454700318        2.4255860625
Ti         5.6694804145        1.8900344464        4.8030659696
Ti        11.3481123719        0.0146135653       -0.0067127479
Ti         3.7823460056        0.0034846744       -0.0000141679
Ti        13.2365929650        1.8962123068        4.8047789646
Ti        13.2351959508        0.0151919059        7.2078194106
Ti         3.7783763924        1.8902802137        2.4054325792
Ti         1.8909379076        5.6675981644        4.8114727660
Ti         0.1322688524       11.3370152520        0.0361326614
Ti         0.0037600185        5.6671477459        2.4027894469
Ti         1.8975809504       11.3496432190        7.1957031888
Ti         0.0029262491        7.5567777942        0.0004982014
Ti         1.8946176317        9.4578461360        4.8083860035
Ti         7.5682898136        1.8901871588        2.4080918783
Ti         9.4589546142        0.0063890225        7.2131603650
Ti         1.8915395192        7.5655342622        7.2069259725
Ti         0.0042226162        9.4513885820        2.4137657101
Ti         9.4597806305        1.8909033029        4.8057901799
Ti         7.5677201906        0.0044342861       -0.0041537806
Ti         3.7776772801        3.7775067289       -0.0008425937
Ti        13.2340774962       13.2574021095        4.7987894218
Ti        11.3482903581        5.6673527927        2.4020334054
Ti         5.6694817468       11.3504164322        7.1992334682
Ti        13.2368714787        3.7771930493        7.2129909289
Ti         3.7818706394       13.2400968539        2.4063583273
Ti         5.6693477979        5.6680164073        4.8075533124
Ti        11.2127073504       11.3542757865        0.0397399871
Ti        11.3471108729       13.2472866965        2.4187026624
Ti         5.6693026494        3.7767689358        7.2143683942
Ti         3.8102778517       11.3497837473        0.0059986647
Ti        13.2367684169        5.6618863247        4.8092011303
Ti         5.6701823357       13.2402443862        4.8034760215
Ti        11.3487042558        3.7759712263       -0.0016944589
Ti        13.2362694234       11.3511120147        7.1293567578
Ti         3.7780035499        5.6678742054        2.4009164982
Ti         3.7790170560        7.5672308685        0.0039385775
Ti        13.2378454123        9.4411082833        4.8006427830
Ti         7.5683282927        5.6678421134        2.4039017579
Ti         9.4526656046       11.3508473825        7.1961642860
Ti        13.2377397240        7.5556575953        7.2053143626
Ti         3.7805024411        9.4592957131        2.4036861561
Ti         9.4599457951        5.6674198368        4.8102360253
Ti         7.5352468810       11.3508196558        0.0031918484
Ti        11.3497626169        9.4546010665        2.4173401115
Ti         5.6694309124        7.5674457060        7.2104267430
Ti         5.6691488924        9.4596171241        4.8056425484
Ti        11.3518599038        7.5529303994       -0.0034071285
Ti         9.4603836129        3.7769262893        7.2121279321
Ti         7.5661487884       13.2405839190        2.4086310797
Ti         7.5686855084        3.7766390072       -0.0034866954
Ti         9.4549405808       13.2421107351        4.8049330969
Ti         7.5668118983        7.5678184646        0.0015718576
Ti         9.4556924100        9.4581088218        4.8069350697
Ti         7.5660078547        9.4595739455        2.4067442473
Ti         9.4594404683        7.5663390445        7.2074138789
O         0.0058557029       -0.0057462201        1.9671783073
O         1.8849635061        1.8865909216        6.7968082100
O         0.0009772481        1.8837961224        4.3911652585
O         1.8810838057       -0.0076033376        9.2047851534
O         1.8853719610       -0.0002258260        5.2246920811
O        -0.0014086874        1.8877657371        0.4125975803
O         1.8858699396        1.8837972989        2.8190368765
O        -0.0003025711        0.0055005386        7.6224711662
O         0.0011776366        3.7759640933        1.9852569181
O         1.8797519282       13.2331540585        6.7960573075
O        11.3522767058        1.8843682352        4.3915166118
O         5.6726208288       -0.0000963261        9.2010120933
O         1.8845435560        3.7756348139        5.2267549859
O        -0.0530833692       13.2155551152        0.3846134503
O         5.6720620383        1.8846740200        2.8181321160
O        11.3534571629        0.0024442590        7.6257967386
O         3.7733235866        0.0001625392        7.6328894989
O        13.2372221439        1.8825195514        2.8172449998
O        13.2366386549        0.0073800593        9.1997057399
O         3.7748688871        1.8845730670        4.3885752605
O         1.8845951337        5.6739433038        6.7969985612
O         0.0159738180       11.3530188160        1.9924988357