     192
 i =        7, E =     -5776.8102255560
Ti         0.0007750092        0.0020014814       -0.0007962326
Ti         0.0005177638        0.0001378121       -0.0003134531
Ti         0.0007502328        0.0009073236        0.0013825172
Ti         0.0005563698        0.0000146947        0.0014886836
Ti         0.0007142653       -0.0003622021       -0.0001692116
Ti         0.0020636811        0.0011969579        0.0009071167
Ti         0.0001864491        0.0010061579        0.0011039087
Ti        -0.0004421347        0.0008400516       -0.0003520921
Ti         0.0006227707       -0.0006434582        0.0001606278
Ti        -0.0001562239        0.0023958486        0.0017637700
Ti        -0.0002060547        0.0002584155       -0.0000260070
Ti         0.0021393009        0.0040358114       -0.0011322230
Ti        -0.0019617468        0.0005109826       -0.0000947587
Ti        -0.0000114015        0.0011290945       -0.0014850190
Ti         0.0004669358        0.0025317752        0.0015061545
Ti        -0.0002187135       -0.0001436756       -0.0003810599
Ti         0.0005247562       -0.0006494412       -0.0002758702
Ti         0.0301054241        0.0065315254        0.0084215639
Ti         0.0004481635       -0.0012216766        0.0017620169
Ti         0.0069041091        0.0015819794       -0.0032149225
Ti        -0.0004356696       -0.0031387999       -0.0006420413
Ti         0.0014687374       -0.0008774463        0.0002740176
Ti        -0.0004941528        0.0004105825        0.0001226083
Ti        -0.0007999824        0.0011438428       -0.0003305772
Ti         0.0008577991       -0.0007968298       -0.0003789760
Ti        -0.0004167636       -0.0024175765        0.0038891936
Ti        -0.0005378773        0.0005193343       -0.0003423279
Ti        -0.0007405651        0.0010576907       -0.0000066859
Ti         0.0003404521       -0.0008283973        0.0000029214
Ti        -0.0004270326        0.0042534093       -0.0033984215
Ti        -0.0003524577       -0.0010347154        0.0010125972
Ti        -0.0003022591        0.0002321118       -0.0029418547
Ti        -0.0001609649       -0.0003036354        0.0007361860
Ti        -0.0005736701        0.0010215155       -0.0009498713
Ti         0.0000716013       -0.0004269575        0.0000254374
Ti        -0.0310853138       -0.0020231177        0.0083685093
Ti         0.0015952247        0.0023719434        0.0038177433
Ti        -0.0000864588       -0.0001330465        0.0002331385
Ti         0.0008067656        0.0011681044        0.0008792247
Ti        -0.0002142180       -0.0012909886       -0.0014055241
Ti        -0.0001999371        0.0005562938        0.0007923071
Ti        -0.0002685335       -0.0001613629       -0.0002120164
Ti         0.0003367369        0.0012477661       -0.0327876654
Ti         0.0003489097       -0.0005581892        0.0000359490
Ti         0.0005699831       -0.0006546083        0.0002058632
Ti        -0.0000515446       -0.0042037534       -0.0040107869
Ti        -0.0002093798       -0.0002826327       -0.0001631363
Ti        -0.0071693966       -0.0002736066       -0.0040901755
Ti        -0.0004928504       -0.0028253766        0.0010895614
Ti         0.0004677942       -0.0005358477       -0.0002018109
Ti        -0.0006179949       -0.0004471097       -0.0003019496
Ti        -0.0023454692       -0.0002100032        0.0008519310
Ti         0.0006442912       -0.0025626194        0.0014950327
Ti         0.0001343106       -0.0006914114       -0.0003280120
Ti        -0.0000437316       -0.0006176654        0.0006069736
Ti        -0.0002464450       -0.0015652870       -0.0003713488
Ti        -0.0006098123        0.0001365116        0.0002459706
Ti        -0.0008342153        0.0007479783       -0.0001691786
Ti        -0.0005564723        0.0002564220       -0.0000992304
Ti        -0.0016772719        0.0010459309        0.0005174540
Ti         0.0004672460       -0.0008525618        0.0000414917
Ti        -0.0016036057       -0.0013152962        0.0002614449
Ti        -0.0002496216       -0.0010909732       -0.0002780313
Ti        -0.0007479273       -0.0006835032        0.0006002700
O         0.0007518321        0.0009039645       -0.0001517706
O         0.0003903889       -0.0005640435        0.0000481572
O        -0.0004741223        0.0008103746       -0.0008515366
O        -0.0016743193        0.0022811998       -0.0006151912
O         0.0009222332       -0.0008682793        0.0004458502
O        -0.0001231974       -0.0052440926       -0.0021449562
O        -0.0009349912        0.0008639537        0.0005521451
O        -0.0010442501        0.0032097797        0.0000384290
O         0.0002318257        0.0011469201        0.0013118410
O         0.0013178868       -0.0024035374       -0.0017454126
O         0.0004514990        0.0005674194       -0.0003930988
O         0.0001745220        0.0000896181        0.0008730792
O         0.0003014184        0.0001359047       -0.0003517690
O        -0.0029589511       -0.0118582808       -0.0028148717
O         0.0001678576        0.0002172807       -0.0000785211
O        -0.0000648086        0.0017511685       -0.0000353296
O         0.0003504668        0.0005641565       -0.0006609364
O        -0.0001080953        0.0009635891        0.0008975593
O        -0.0004414049        0.0034613249       -0.0014131409
O        -0.0002571683        0.0004432070        0.0000808599
O         0.0002500786        0.0008859082        0.0004937915
O         0.0027378401       -0.0027553460       -0.0030103775
O         0.0002154954        0.0016558025       -0.0016054196
O         0.0009794278       -0.0001507989        0.0019649653
O         0.0010668905        0.0013813435        0.0007234809
O         0.0006084513        0.0020285436       -0.0002297577
O         0.0005001688        0.0002261982        0.0001244310
O         0.0018435188        0.0005914453        0.0006038125
O         0.0005357091        0.0011318561       -0.0000478541
O        -0.0008218460        0.0099395979       -0.0038839758
O         0.0007135068        0.0003116492        0.0001144556
O         0.0008608828        0.0003952852       -0.0006357596
O         0.0014914808       -0.0004764359        0.0001982873
O        -0.0002738574       -0.0022103733        0.0009591850
O        -0.0003665885       -0.0001162683       -0.0004746965
O        -0.0119832194       -0.0030533062        0.0028568846
O        -0.0005061525       -0.0026053438        0.0002350352
O         0.0009348914       -0.0002092845        0.0000076433
O        -0.0007437436       -0.0000112586        0.0001405970
O        -0.0053855084       -0.0022203213        0.0046454830
O        -0.0006545416       -0.0022906937       -0.0011739871
O         0.0002050002       -0.0004450445        0.0002462867
O         0.0001725950       -0.0004620393       -0.0000475198
O        -0.0018626553       -0.0011359900        0.0000911304
O        -0.0007906242        0.0007728566       -0.0003334352
O        -0.0015896635        0.0006475108       -0.0047853181
O        -0.0003823627        0.0005588606        0.0006511884
O        -0.0026169028       -0.0000033242        0.0010387904
O         0.0002739396        0.0003193980        0.0003088164
O        -0.0009303138       -0.0078416237        0.0001077118
O         0.0005641093       -0.0001911411       -0.0005264198
O         0.0003041516       -0.0001085536        0.0018610008
O        -0.0000966575        0.0000900731       -0.0008602636
O         0.0028730564       -0.0015118887        0.0009720550
O        -0.0000556509        0.0000127542       -0.0000820684
O         0.0049133369        0.0001534647        0.0051571999
O         0.0005001082       -0.0101411968       -0.0029087427
O         0.0000783778        0.0000566585       -0.0001080550
O         0.0002255722       -0.0004772234       -0.0018831149
O        -0.0001727100       -0.0001255553        0.0007093557
O         0.0002284890       -0.0008377487       -0.0004348302
O        -0.0003991304       -0.0001738188        0.0008947796
O         0.0013099463       -0.0008314332        0.0119379309
O        -0.0003714129       -0.0000038736        0.0000861272
O         0.0000050290        0.0005301077       -0.0000167200
O        -0.0034779070        0.0010540259       -0.0035456614
O        -0.0001216917        0.0005077699       -0.0007726907
O        -0.0008982070        0.0000639149        0.0007001492
O        -0.0000119774        0.0022276959       -0.0015911308
O         0.0001266464        0.0000182493        0.0006412080
O        -0.0003448967        0.0003478946       -0.0001808829
O         0.0000069054        0.0013192050        0.0038725684
O        -0.0002975266        0.0001422533        0.0133068183
O         0.0001639366        0.0006699721       -0.0002441876
O         0.0002146984        0.0000451768       -0.0010029065
O         0.0004769834        0.0001139860        0.0004079747
O         0.0015845575       -0.0004009191       -0.0009912706
O         0.0000192361        0.0016935786        0.0012499312
O         0.0015191910        0.0007065691       -0.0013566734
O         0.0000528989        0.0001560729        0.0000249368
O         0.0004337820        0.0008132255        0.0000248657
O         0.0001818216        0.0075237333        0.0013365874
O         0.0004263945       -0.0000859738        0.0001066458
O         0.0116579760        0.0006899405        0.0034852384
O         0.0000776728        0.0024021160       -0.0002523018
O         0.0011442966        0.0008784325        0.0004485459
O         0.0007395970       -0.0001502542        0.0002727608
O         0.0008590573       -0.0000169321       -0.0019724076
O         0.0015907573        0.0096397721       -0.0024415966
O         0.0000052834        0.0007316844        0.0001587037
O         0.0000301378        0.0006607207       -0.0002847229
O        -0.0008054308        0.0015181044        0.0004028435
O         0.0006321025       -0.0000803325       -0.0001948196
O         0.0010310500        0.0001801610        0.0008247212
O         0.0004654004       -0.0000054393       -0.0001896508
O         0.0024943449        0.0003102296       -0.0006010295
O        -0.0002808986       -0.0006788820       -0.0001048883
O        -0.0003211267       -0.0009208636        0.0003544729
O        -0.0013210712       -0.0010265277       -0.0014174352
O        -0.0017268036       -0.0006043314        0.0003007799
O        -0.0006375168       -0.0009615291        0.0001446114
O        -0.0000354312       -0.0006276644       -0.0001678675
O        -0.0024756239       -0.0006922693       -0.0003281646
O        -0.0003105057       -0.0014517717        0.0003253631
O        -0.0000892998       -0.0000805615        0.0002647849
O        -0.0007502012       -0.0023423493       -0.0004580878
O         0.0015872324       -0.0008050444       -0.0020253546
O        -0.0000480229       -0.0000480574        0.0005827727
O        -0.0002709857       -0.0000038751       -0.0003063333
O        -0.0008083305       -0.0012498250        0.0005647776
O         0.0000120118       -0.0001717971       -0.0008390196
O         0.0010188150       -0.0018751495       -0.0000636500
O        -0.0006563722       -0.0003094089       -0.0003852243
O        -0.0000515958       -0.0017095385        0.0030137696
O         0.0002602184       -0.0035811665       -0.0011282582
O        -0.0008485261       -0.0003926047        0.0005395629
O        -0.0002391325        0.0006900584        0.0002180893
O        -0.0008592945        0.0002246500       -0.0011819862
O        -0.0002869935        0.0005136559       -0.0000494629
O        -0.0007903025        0.0001974762        0.0020458830
O        -0.0006003752        0.0008787333        0.0000825647
O        -0.0007648416        0.0023725044       -0.0006404732
O         0.0009440527       -0.0002022782        0.0006213764
O         0.0013567286       -0.0012911278        0.0000105117
O        -0.0005891019        0.0012058392        0.0001559899
O        -0.0012780061        0.0013339351        0.0005457259
O         0.0020546176       -0.0001993844        0.0000961610
O         0.0004869516       -0.0002540760       -0.0005503877
     192
 i =        8, E =     -5776.8194223326
Ti        -0.0030953234       -0.0190345529        0.0034980950
Ti        -0.0009102606       -0.0013355713        0.0000637755
Ti        -0.0002618658       -0.0055314543       -0.0005463894
Ti        -0.0035308137       -0.0006699224        0.0041554444
Ti        -0.0004093199       -0.0001292605       -0.0011232178
Ti        -0.0016841790        0.0003331617       -0.0012215532
Ti         0.0008047074       -0.0022614843       -0.0006145942
Ti        -0.0010034692       -0.0000883014        0.0006741261
Ti        -0.0010700342       -0.0006922141        0.0008428075
Ti        -0.0035553219       -0.0008511093       -0.0174724792
Ti        -0.0003878042       -0.0004100199       -0.0002469508
Ti         0.0063723978       -0.0057945610       -0.0006650308
Ti        -0.0047492191       -0.0002218332       -0.0007373221
Ti         0.0002476822       -0.0011808535       -0.0008472928
Ti         0.0011392282       -0.0030139460        0.0064564002
Ti        -0.0009190670       -0.0012505473       -0.0006989498
Ti        -0.0005931785        0.0003163338        0.0001599407
Ti        -0.0064138667        0.0171456960        0.0029809715
Ti        -0.0001852942        0.0007873447       -0.0000648599
Ti        -0.0030360845        0.0001767237       -0.0025507208
Ti        -0.0032621362        0.0042548893       -0.0011601693
Ti        -0.0016825577        0.0005164981        0.0001915328
Ti         0.0005928503       -0.0007845420       -0.0003774052
Ti         0.0031683836       -0.0007587483        0.0015169425
Ti        -0.0025186875        0.0011342454        0.0010768152
Ti        -0.0033314280        0.0052123214       -0.0029054560
Ti         0.0008447794       -0.0008200786       -0.0002078488
Ti         0.0015362579       -0.0003734926        0.0001747368
Ti        -0.0006525801       -0.0008928167       -0.0001283417
Ti         0.0001622350        0.0038159377       -0.0030817570
Ti         0.0004728259        0.0017815442       -0.0003482938
Ti        -0.0005548410        0.0002428624       -0.0041349544
Ti         0.0001386523       -0.0005462575        0.0021064054
Ti        -0.0028135973        0.0004721961       -0.0009785457
Ti        -0.0001410963       -0.0000405088       -0.0000758143
Ti         0.0073395242       -0.0010325106       -0.0003412955
Ti         0.0052312934       -0.0020201072       -0.0051622481
Ti        -0.0002838594       -0.0003128402        0.0005301431
Ti        -0.0013148260        0.0006165805        0.0013177576
Ti        -0.0002176756        0.0002896139       -0.0006191885
Ti        -0.0004846505        0.0006602041       -0.0000573455
Ti         0.0007740781       -0.0007969405       -0.0008088761
Ti         0.0006025354        0.0005496734        0.0040752823
Ti        -0.0006525263        0.0001773589       -0.0003856837
Ti        -0.0014073651        0.0006764760        0.0000199898
Ti         0.0001039354       -0.0028748107       -0.0020231273
Ti         0.0005692505        0.0003713451       -0.0004765721
Ti         0.0025868832        0.0005005097       -0.0035134176
Ti        -0.0001058122        0.0029484376        0.0037821414
Ti        -0.0014568665        0.0004052805       -0.0008469239
Ti         0.0007247897        0.0004704318       -0.0000153484
Ti        -0.0001764624        0.0004158507        0.0015224770
Ti         0.0037513636        0.0021800909       -0.0064896418
Ti        -0.0000735827        0.0003691009        0.0003798322
Ti        -0.0002343017       -0.0004039360        0.0000533682
Ti         0.0029768898        0.0078667708        0.0006304003
Ti         0.0010053293       -0.0002709598        0.0008613635
Ti         0.0013052872        0.0002899629       -0.0010133202
Ti         0.0004878627       -0.0001877774       -0.0001510123
Ti         0.0017323999        0.0002325821       -0.0001164554
Ti         0.0020125552        0.0003178826       -0.0001049728
Ti         0.0016050881       -0.0000680528       -0.0004135306
Ti         0.0014381494       -0.0000485823       -0.0007243726
Ti         0.0024761067        0.0007493548        0.0016780278
O         0.0003148610        0.0058225611        0.0022188465
O         0.0005803335        0.0032357357       -0.0008006495
O         0.0004478566        0.0000332088        0.0002934314
O         0.0081732835        0.0020596385       -0.0028475368
O         0.0000466681        0.0008621614       -0.0008812559
O         0.0002877088        0.0059202219       -0.0000758625
O         0.0019575676        0.0002703330        0.0002484091
O         0.0019370576       -0.0000834664       -0.0039663757
O         0.0002081722        0.0004183922        0.0000750934
O         0.0002818953       -0.0001624171       -0.0006863876
O        -0.0007343317        0.0001366026        0.0000082956
O         0.0012803512        0.0004532934       -0.0007488078
O         0.0001628097        0.0005233467        0.0001588217
O         0.0045938066       -0.0009910745        0.0070236640
O         0.0005464915        0.0002793705        0.0004957217
O        -0.0028245708        0.0001599043       -0.0018599333
O         0.0020796644       -0.0001969925       -0.0004054031
O        -0.0011938440        0.0004700810        0.0006750114
O        -0.0050644084        0.0060144366       -0.0034421861
O         0.0008589703       -0.0000109704        0.0001384845
O         0.0004800777       -0.0001926205       -0.0008548064
O         0.0033139750       -0.0044452134        0.0046251858
O         0.0002500506       -0.0011763198        0.0004251203
O         0.0000893271       -0.0005525971        0.0008338952
O         0.0000258893       -0.0013123325        0.0006974873
O         0.0011778161       -0.0021876291       -0.0014251883
O        -0.0002965500        0.0001639859       -0.0001264305
O        -0.0045970635        0.0003608346       -0.0008377281
O         0.0003176348       -0.0002077496        0.0000062894
O        -0.0009206372       -0.0055773554        0.0029027532
O        -0.0014893018        0.0004462165        0.0006336609
O        -0.0005915178        0.0001689660        0.0002178125
O        -0.0005879042        0.0008732436        0.0009094807
O        -0.0000758049        0.0033968602       -0.0008710752
O         0.0004657745       -0.0003403840       -0.0001509233
O         0.0013786657        0.0009627833        0.0027439071
O         0.0003574966       -0.0001822304       -0.0019557568
O         0.0000362385        0.0021608751        0.0004722387
O         0.0011150093       -0.0002946755        0.0003550408
O         0.0052356600        0.0006339489       -0.0058904042
O         0.0001205398        0.0036517354        0.0003104387
O        -0.0000284848        0.0005344887       -0.0002291865
O         0.0000256555        0.0006750423       -0.0000888275
O         0.0002153050        0.0022807524        0.0013054367
O         0.0013225220       -0.0004911563        0.0002659937
O         0.0005488526        0.0002880905        0.0026029912
O         0.0006215759       -0.0003773244       -0.0005639384
O         0.0077995733        0.0008361450        0.0020424871
O         0.0000516483        0.0006169992       -0.0000142515
O         0.0010123161        0.0018839953       -0.0044634423
O        -0.0004663892       -0.0003194191        0.0001266120
O         0.0010401416       -0.0001066390        0.0009276708
O         0.0000319434        0.0005334531       -0.0006440740
O        -0.0003964626       -0.0007627499        0.0001928712
O         0.0000688946       -0.0001900285        0.0002565220
O        -0.0067307406        0.0000632288       -0.0050947168
O        -0.0013039844        0.0025754630        0.0037790077
O         0.0000092489        0.0003529908        0.0000015286
O         0.0033045166        0.0006038742       -0.0022968458
O         0.0000227024       -0.0003243815        0.0005306760
O         0.0000098247       -0.0001158902       -0.0005434542
O        -0.0001183248        0.0006774100        0.0000925303
O        -0.0027724065       -0.0031381281        0.0089240076
O         0.0005974508       -0.0001860876        0.0000617326
O         0.0000516924        0.0001160467       -0.0002241541
O        -0.0029518870       -0.0007074337        0.0029422945
O        -0.0004674517       -0.0002609710        0.0002380128
O         0.0009014228        0.0002420948        0.0004445484
O        -0.0003965819       -0.0018398154        0.0006376048
O        -0.0000110265       -0.0002121392        0.0003875287
O         0.0007470920       -0.0001818083       -0.0002162819
O        -0.0037384953        0.0004848200        0.0055503692
O         0.0002121203       -0.0004614914        0.0079416363
O         0.0003418672        0.0001143828        0.0003467303
O         0.0008637145        0.0002424142        0.0008920446
O        -0.0007728107        0.0000142651       -0.0004586286
O        -0.0002070108       -0.0006671420       -0.0001196367
O        -0.0000339535       -0.0010321419       -0.0008436424
O        -0.0008985918        0.0004190090        0.0004678661
O         0.0002907517        0.0000689310       -0.0003074787
O         0.0001146919       -0.0002897808        0.0001886563
O        -0.0005672937       -0.0038622267       -0.0042366646
O        -0.0002758897       -0.0001537833        0.0000397962
O         0.0021449812       -0.0006947865        0.0036462317
O        -0.0001126069        0.0002043918       -0.0013147220
O         0.0006312891       -0.0013176294        0.0005595926
O        -0.0011550181       -0.0003058429        0.0002467151
O        -0.0030206223       -0.0001470228       -0.0020065151
O        -0.0014177078       -0.0037611640        0.0052782220
O         0.0000357666       -0.0001194254       -0.0000503152
O         0.0000783124       -0.0004707377       -0.0006135753
O        -0.0003143496       -0.0020570830        0.0008316282
O        -0.0012064424        0.0002511737       -0.0000623810
O        -0.0002530871        0.0001446262       -0.0000110848
O        -0.0003114500        0.0001102790       -0.0000776210
O        -0.0047756582        0.0007898271        0.0014779078
O        -0.0002390215        0.0006675798        0.0005359963
O        -0.0004863225        0.0013990246       -0.0004207088
O         0.0005856215       -0.0004183674        0.0004419726
O         0.0034145942       -0.0001465165       -0.0001009515
O        -0.0003245908        0.0006825108       -0.0003964977
O        -0.0003247309        0.0007914867       -0.0000004586
O         0.0046122321       -0.0008124928        0.0009329398
O         0.0018257191       -0.0004910227       -0.0013490274
O        -0.0001421394        0.0003300840        0.0000591851
O        -0.0009472889        0.0007362811       -0.0010533776
O        -0.0007675014       -0.0004391919        0.0009541305
O        -0.0000132302       -0.0003972505       -0.0004401794
O        -0.0002069686        0.0003445639        0.0000161226
O        -0.0009087324        0.0001674153        0.0002154454
O         0.0002137745       -0.0003326402        0.0006187753
O        -0.0018062715       -0.0003947639       -0.0018063661
O         0.0010057661       -0.0001727490       -0.0000267321
O         0.0001690512       -0.0007286514        0.0037852354
O         0.0009379074       -0.0018901161       -0.0012234093
O         0.0007521457       -0.0000762495        0.0001336978
O        -0.0005003762       -0.0006344730       -0.0005584765
O        -0.0004616423       -0.0002166163       -0.0001960414
O        -0.0002564608       -0.0002569522        0.0003226054
O        -0.0002641196       -0.0002212498        0.0010303379
O        -0.0000178827       -0.0001162491        0.0004273341
O        -0.0006680870       -0.0007621882       -0.0006896142
O        -0.0001497318       -0.0002147384       -0.0000199574
O        -0.0040239998       -0.0002343611       -0.0008983494
O        -0.0002770246       -0.0000865658       -0.0004519689
O        -0.0004767263       -0.0003123973        0.0002351269
O        -0.0048215543       -0.0008560894        0.0010467320
O        -0.0006244006       -0.0001292795       -0.0000097425
     192
 i =        9, E =     -5776.8229093268
Ti        -0.0003014435       -0.0092880595        0.0024992211
Ti        -0.0004245339       -0.0005415532        0.0000776184
Ti         0.0001770211       -0.0028901687       -0.0010789153
Ti        -0.0015965025       -0.0002944854        0.0026708568
Ti        -0.0000097214       -0.0009657564        0.0000033325
Ti        -0.0007838305        0.0008262045       -0.0009705175
Ti         0.0007310868       -0.0007842490       -0.0005162148
Ti        -0.0007739366        0.0002238596        0.0005136058
Ti        -0.0004142455       -0.0009872173        0.0000836081
Ti        -0.0005010207       -0.0002205671       -0.0095674903
Ti        -0.0003041230       -0.0001314369       -0.0001998790
Ti         0.0034301605       -0.0016093843       -0.0001123374
Ti        -0.0035792822        0.0001654357       -0.0007735647
Ti         0.0002283025       -0.0001975421       -0.0003978803
Ti         0.0008922809       -0.0009391340        0.0028899953
Ti        -0.0008998950       -0.0005966356       -0.0004639465
Ti        -0.0002020369       -0.0001294762        0.0001247176
Ti         0.0018946520        0.0094654081        0.0020671688
Ti         0.0000097447        0.0000525408       -0.0003902298
Ti        -0.0016293552        0.0009135567       -0.0031180787
Ti        -0.0017244451        0.0015291108        0.0000052095
Ti        -0.0003643536       -0.0003179047       -0.0000512532
Ti         0.0002096447       -0.0001789667        0.0000799698
Ti         0.0012511452       -0.0001321571        0.0006321962
Ti        -0.0009540279        0.0005436608        0.0000648914
Ti        -0.0013775060        0.0027134245       -0.0014897579
Ti         0.0003038255       -0.0001966523       -0.0001745977
Ti         0.0006223743        0.0001954644       -0.0003742571
Ti        -0.0004256792       -0.0009353199        0.0001479433
Ti         0.0005773858        0.0026679359       -0.0005974986
Ti         0.0001176229        0.0006840261       -0.0005897751
Ti        -0.0004406281        0.0002990204       -0.0031681428
Ti         0.0001256553       -0.0006774037        0.0007894050
Ti        -0.0025368216        0.0005085963       -0.0004822257
Ti        -0.0001059471       -0.0001850213       -0.0000531346
Ti         0.0003191897       -0.0015920895        0.0002738892
Ti         0.0024844597       -0.0008325238       -0.0023073509
Ti        -0.0002091256       -0.0002445363        0.0002635884
Ti         0.0002696864        0.0008149962        0.0015472783
Ti        -0.0000938268       -0.0002508591       -0.0002338162
Ti        -0.0003791823        0.0009363857       -0.0001880728
Ti         0.0004921988       -0.0004981334        0.0000851568
Ti         0.0004760170        0.0002397559       -0.0057784583
Ti        -0.0003089343       -0.0001481864       -0.0001652616
Ti        -0.0006064518        0.0001567835        0.0000220313
Ti         0.0000394734       -0.0022067605        0.0001430827
Ti         0.0003655897        0.0000634294       -0.0002324331
Ti         0.0013849352        0.0000474302       -0.0039939810
Ti        -0.0002032113        0.0015167440        0.0012748681
Ti        -0.0011709867        0.0000420943       -0.0002541323
Ti         0.0001941187        0.0000170341        0.0000098142
Ti        -0.0018475196        0.0000106351        0.0015688131
Ti         0.0014924052        0.0007200652       -0.0038940055
Ti         0.0000118348       -0.0000626232        0.0002192583
Ti        -0.0001842574       -0.0007958658       -0.0001158228
Ti         0.0011121186        0.0038662241        0.0009697459
Ti         0.0003011518       -0.0000498240        0.0001884787
Ti         0.0008590210        0.0002998784       -0.0000472960
Ti         0.0001355467        0.0000209970       -0.0000522803
Ti         0.0003775776        0.0007493879       -0.0003200537
Ti         0.0014046892       -0.0000511074       -0.0002706178
Ti         0.0003523713       -0.0007195523       -0.0004039370
Ti         0.0012613614       -0.0003602079       -0.0002096541
Ti         0.0009560079        0.0003300462        0.0009442808
O        -0.0003020069        0.0023381727        0.0010584816
O         0.0000916393        0.0008855326       -0.0003198641
O         0.0001228888        0.0001233105       -0.0001898039
O         0.0037396774        0.0011300217       -0.0017785749
O         0.0000699625        0.0006045088       -0.0005591356
O         0.0002121415        0.0036648470        0.0001027743
O         0.0006598739        0.0002417049        0.0002367604
O         0.0006358705       -0.0003258617       -0.0014940597
O         0.0000794030        0.0004967835        0.0000401144
O         0.0004418617       -0.0004688495       -0.0003574829
O        -0.0004383047        0.0000327674       -0.0001259913
O         0.0007642394        0.0001316196       -0.0001034664
O         0.0000554828        0.0006171279       -0.0001730490
O        -0.0011094270        0.0004828822        0.0055311954
O         0.0003381034        0.0000567546        0.0000885742
O        -0.0016872215       -0.0002938206       -0.0007184332
O         0.0015860954        0.0000491804       -0.0004117156
O        -0.0005328587        0.0001907734        0.0006335687
O        -0.0022135228        0.0002312249       -0.0021368613
O         0.0006058475        0.0000972817        0.0001254421
O         0.0000765085        0.0001355604       -0.0000023543
O         0.0012332285       -0.0020255054        0.0022359242