 DBCSR| CPU Multiplication driver                                           XSMM (U)
 DBCSR| Multrec recursion limit                                              512 (U)
 DBCSR| Multiplication stack size                                           1000 (D)
 DBCSR| Maximum elements for images                                    UNLIMITED (U)
 DBCSR| Multiplicative factor virtual images                                   1 (U)
 DBCSR| Use multiplication densification                                       T (D)
 DBCSR| Multiplication size stacks                                             3 (U)
 DBCSR| Use memory pool for CPU allocation                                     F (U)
 DBCSR| Number of 3D layers                                               SINGLE (U)
 DBCSR| Use MPI memory allocation                                              F (U)
 DBCSR| Use RMA algorithm                                                      F (U)
 DBCSR| Use Communication thread                                               T (U)
 DBCSR| Communication thread load                                             87 (D)
 DBCSR| MPI: My process id                                                     0
 DBCSR| MPI: Number of processes                                             128
 DBCSR| OMP: Current number of threads                                         1
 DBCSR| OMP: Max number of threads                                             1
 DBCSR| Split modifier for TAS multiplication algorithm                  1.0E+00 (U)


  **** **** ******  **  PROGRAM STARTED AT               2025-06-19 09:54:24.887
 ***** ** ***  *** **   PROGRAM STARTED ON                             nid002158
 **    ****   ******    PROGRAM STARTED BY                                cahart
 ***** **    ** ** **   PROGRAM PROCESS ID                                 68265
  **** **  *******  **  PROGRAM STARTED IN /mnt/lustre/a2fs-work2/work/e05/e05/c
                                           ahart/postdoc2/work/group/tio2/anatas
                                           e/cell-441/geo-opt/mp-390/hole/from-n
                                           eutral/pbe-u-o/u-2.9

 CP2K| version string:                                       CP2K version 2024.3
 CP2K| source code revision number:                                  git:6712648
 CP2K| cp2kflags: omp libint fftw3 libxc libgrpp elpa parallel scalapack cosma x
 CP2K|            smm plumed2 spglib mkl sirius libvori libbqb libvdwxc hdf5
 CP2K| is freely available from                            https://www.cp2k.org/
 CP2K| Program compiled at                       Thu 12 Sep 2024 10:20:47 AM BST
 CP2K| Program compiled on                                                  ln04
 CP2K| Program compiled for                                                local
 CP2K| Data directory path    /mnt/lustre/a2fs-work1/work/y07/shared/apps/core/c
 CP2K| Input file name                                                 input.inp

 GLOBAL| Force Environment number                                              1
 GLOBAL| Basis set file name                                        BASIS_MOLOPT
 GLOBAL| Potential file name                                      GTH_POTENTIALS
 GLOBAL| MM Potential file name                                     MM_POTENTIAL
 GLOBAL| Coordinate file name                                         system.xyz
 GLOBAL| Method name                                                        CP2K
 GLOBAL| Project name                                                       tio2
 GLOBAL| Run type                                                        GEO_OPT
 GLOBAL| FFT library                                                       FFTW3
 GLOBAL| Diagonalization library                                            ELPA
 GLOBAL| DGEMM library                                                      BLAS
 GLOBAL| Minimum number of eigenvectors for ELPA usage                        16
 GLOBAL| Orthonormality check for eigenvectors                          DISABLED
 GLOBAL| Matrix multiplication library                                     COSMA
 GLOBAL| All-to-all communication in single precision                          F
 GLOBAL| FFTs using library dependent lengths                                  F
 GLOBAL| Grid backend                                                       AUTO
 GLOBAL| Global print level                                               MEDIUM
 GLOBAL| MPI I/O enabled                                                       T
 GLOBAL| Total number of message passing processes                           128
 GLOBAL| Number of threads for this process                                    1
 GLOBAL| This output is from process                                           0
 GLOBAL| Stack size for threads created by OpenMP (OMP_STACKSIZE)        default
 GLOBAL| CPU model name                          AMD EPYC 7742 64-Core Processor
 GLOBAL| CPUID                                                              1002

 MEMORY| system memory details [Kb]
 MEMORY|                        rank 0           min           max       average
 MEMORY| MemTotal            263341976     263341976     263341976     263341976
 MEMORY| MemFree             235055496     235055496     235055496     235055496
 MEMORY| Buffers                     0             0             0             0
 MEMORY| Cached                1968536       1968536       1968536       1968536
 MEMORY| Slab                  5468076       5468076       5468076       5468076
 MEMORY| SReclaimable           397536        397536        397536        397536
 MEMORY| MemLikelyFree       237421568     237421568     237421568     237421568


 *** Fundamental physical constants (SI units) ***

 *** Literature: B. J. Mohr and B. N. Taylor,
 ***             CODATA recommended values of the fundamental physical
 ***             constants: 2006, Web Version 5.1
 ***             http://physics.nist.gov/constants

 Speed of light in vacuum [m/s]                             2.99792458000000E+08
 Magnetic constant or permeability of vacuum [N/A**2]       1.25663706143592E-06
 Electric constant or permittivity of vacuum [F/m]          8.85418781762039E-12
 Planck constant (h) [J*s]                                  6.62606896000000E-34
 Planck constant (h-bar) [J*s]                              1.05457162825177E-34
 Elementary charge [C]                                      1.60217648700000E-19
 Electron mass [kg]                                         9.10938215000000E-31
 Electron g factor [ ]                                     -2.00231930436220E+00
 Proton mass [kg]                                           1.67262163700000E-27
 Fine-structure constant                                    7.29735253760000E-03
 Rydberg constant [1/m]                                     1.09737315685270E+07
 Avogadro constant [1/mol]                                  6.02214179000000E+23
 Boltzmann constant [J/K]                                   1.38065040000000E-23
 Atomic mass unit [kg]                                      1.66053878200000E-27
 Bohr radius [m]                                            5.29177208590000E-11

 *** Conversion factors ***

 [u] -> [a.u.]                                              1.82288848426455E+03
 [Angstrom] -> [Bohr] = [a.u.]                              1.88972613288564E+00
 [a.u.] = [Bohr] -> [Angstrom]                              5.29177208590000E-01
 [a.u.] -> [s]                                              2.41888432650478E-17
 [a.u.] -> [fs]                                             2.41888432650478E-02
 [a.u.] -> [J]                                              4.35974393937059E-18
 [a.u.] -> [N]                                              8.23872205491840E-08
 [a.u.] -> [K]                                              3.15774647902944E+05
 [a.u.] -> [kJ/mol]                                         2.62549961709828E+03
 [a.u.] -> [kcal/mol]                                       6.27509468713739E+02
 [a.u.] -> [Pa]                                             2.94210107994716E+13
 [a.u.] -> [bar]                                            2.94210107994716E+08
 [a.u.] -> [atm]                                            2.90362800883016E+08
 [a.u.] -> [eV]                                             2.72113838565563E+01
 [a.u.] -> [Hz]                                             6.57968392072181E+15
 [a.u.] -> [1/cm] (wave numbers)                            2.19474631370540E+05
 [a.u./Bohr**2] -> [1/cm]                                   5.14048714338585E+03
 

 CELL_TOP| Volume [angstrom^3]:                                      2198.132028
 CELL_TOP| Vector a [angstrom    15.120     0.000     0.000   |a| =    15.120000
 CELL_TOP| Vector b [angstrom     0.000    15.120     0.000   |b| =    15.120000
 CELL_TOP| Vector c [angstrom     0.000     0.000     9.615   |c| =     9.615020
 CELL_TOP| Angle (b,c), alpha [degree]:                                90.000000
 CELL_TOP| Angle (a,c), beta  [degree]:                                90.000000
 CELL_TOP| Angle (a,b), gamma [degree]:                                90.000000
 CELL_TOP| Requested initial symmetry:                       MONOCLINIC_GAMMA_AB
 CELL_TOP| Numerically orthorhombic:                                         YES
 CELL_TOP| Periodicity                                                       XYZ

 *** WARNING in atoms_input.F:123 :: Overwriting coordinates. Active    ***
 *** coordinates read from &COORD section. Active coordinates READ from ***
 *** &COORD section                                                     ***


 GENERATE|  Preliminary Number of Bonds generated:                             0
 GENERATE|  Achieved consistency in connectivity generation.

 CELL| Volume [angstrom^3]:                                          2198.132028
 CELL| Vector a [angstrom]:      15.120     0.000     0.000   |a| =    15.120000
 CELL| Vector b [angstrom]:       0.000    15.120     0.000   |b| =    15.120000
 CELL| Vector c [angstrom]:       0.000     0.000     9.615   |c| =     9.615020
 CELL| Angle (b,c), alpha [degree]:                                    90.000000
 CELL| Angle (a,c), beta  [degree]:                                    90.000000
 CELL| Angle (a,b), gamma [degree]:                                    90.000000
 CELL| Requested initial symmetry:                           MONOCLINIC_GAMMA_AB
 CELL| Numerically orthorhombic:                                             YES
 CELL| Periodicity                                                           XYZ

 CELL_REF| Volume [angstrom^3]:                                      2198.132028
 CELL_REF| Vector a [angstrom    15.120     0.000     0.000   |a| =    15.120000
 CELL_REF| Vector b [angstrom     0.000    15.120     0.000   |b| =    15.120000
 CELL_REF| Vector c [angstrom     0.000     0.000     9.615   |c| =     9.615020
 CELL_REF| Angle (b,c), alpha [degree]:                                90.000000
 CELL_REF| Angle (a,c), beta  [degree]:                                90.000000
 CELL_REF| Angle (a,b), gamma [degree]:                                90.000000
 CELL_REF| Requested initial symmetry:                       MONOCLINIC_GAMMA_AB
 CELL_REF| Numerically orthorhombic:                                         YES
 CELL_REF| Periodicity                                                       XYZ

 *******************************************************************************
 *******************************************************************************
 **                                                                           **
 **     #####                         ##              ##                      **
 **    ##   ##            ##          ##              ##                      **
 **   ##     ##                       ##            ######                    **
 **   ##     ##  ##   ##  ##   #####  ##  ##   ####   ##    #####    #####    **
 **   ##     ##  ##   ##  ##  ##      ## ##   ##      ##   ##   ##  ##   ##   **
 **   ##  ## ##  ##   ##  ##  ##      ####     ###    ##   ######   ######    **
 **    ##  ###   ##   ##  ##  ##      ## ##      ##   ##   ##       ##        **
 **     #######   #####   ##   #####  ##  ##  ####    ##    #####   ##        **
 **           ##                                                    ##        **
 **                                                                           **
 **                                                ... make the atoms dance   **
 **                                                                           **
 **            Copyright (C) by CP2K developers group (2000-2024)             **
 **                      J. Chem. Phys. 152, 194103 (2020)                    **
 **                                                                           **
 *******************************************************************************

 DFT| Spin unrestricted (spin-polarized) Kohn-Sham calculation               UKS
 DFT| Multiplicity                                                             2
 DFT| Number of spin states                                                    2
 DFT| Charge                                                                   1
 DFT| Self-interaction correction (SIC)                                       NO
 DFT| Cutoffs: density                                              1.000000E-10
 DFT|          gradient                                             1.000000E-10
 DFT|          tau                                                  1.000000E-10
 DFT|          cutoff_smoothing_range                               0.000000E+00
 DFT| XC density smoothing                                                  NONE
 DFT| XC derivatives                                                          PW

 DFT+U| Method                                                          MULLIKEN
 DFT+U| Check atomic kind information for details

 FUNCTIONAL| PBE:
 FUNCTIONAL| J.P.Perdew, K.Burke, M.Ernzerhof, Phys. Rev. Letter, vol. 77, n 18,
 FUNCTIONAL|  pp. 3865-3868, (1996) {spin polarized}                            


 QS| Method:                                                                 GPW
 QS| Density plane wave grid type                        NON-SPHERICAL FULLSPACE
 QS| Number of grid levels:                                                    4
 QS| Density cutoff [a.u.]:                                                300.0
 QS| Multi grid cutoff [a.u.]: 1) grid level                               300.0
 QS|                           2) grid level                               100.0
 QS|                           3) grid level                                33.3
 QS|                           4) grid level                                11.1
 QS| Grid level progression factor:                                          3.0
 QS| Relative density cutoff [a.u.]:                                        20.0
 QS| Interaction thresholds: eps_pgf_orb:                                1.0E-06
 QS|                         eps_filter_matrix:                          0.0E+00
 QS|                         eps_core_charge:                            1.0E-14
 QS|                         eps_rho_gspace:                             1.0E-12
 QS|                         eps_rho_rspace:                             1.0E-12
 QS|                         eps_gvg_rspace:                             1.0E-06
 QS|                         eps_ppl:                                    1.0E-02
 QS|                         eps_ppnl:                                   1.0E-08


 ATOMIC KIND INFORMATION

  1. Atomic kind: Ti                                    Number of atoms:      64

     Orbital Basis Set                                    DZVP-MOLOPT-SR-GTH-q12

       Number of orbital shell sets:                                           1
       Number of orbital shells:                                               8
       Number of primitive Cartesian functions:                                6
       Number of Cartesian basis functions:                                   31
       Number of spherical basis functions:                                   26
       Norm type:                                                              2

       Normalised Cartesian orbitals:

                        Set   Shell   Orbital            Exponent    Coefficient

                          1       1    2s                7.884570       0.015554
                                                         3.894698       0.963603
                                                         1.513589      -0.631435
                                                         0.596768      -0.343022
                                                         0.222222      -0.006534
                                                         0.077078       0.007652

                          1       2    3s                7.884570      -0.009340
                                                         3.894698       0.212624
                                                         1.513589      -0.258368
                                                         0.596768      -0.226206
                                                         0.222222       0.039438
                                                         0.077078       0.107179

                          1       3    4s                7.884570       0.276563
                                                         3.894698       0.105452
                                                         1.513589       0.085149
                                                         0.596768       0.882541
                                                         0.222222      -0.696223
                                                         0.077078       0.156638

                          1       4    3px               7.884570      -2.034794
                                                         3.894698       0.782008
                                                         1.513589       1.253903
                                                         0.596768       0.347823
                                                         0.222222       0.016778
                                                         0.077078      -0.000433
                          1       4    3py               7.884570      -2.034794
                                                         3.894698       0.782008
                                                         1.513589       1.253903
                                                         0.596768       0.347823
                                                         0.222222       0.016778
                                                         0.077078      -0.000433
                          1       4    3pz               7.884570      -2.034794
                                                         3.894698       0.782008
                                                         1.513589       1.253903
                                                         0.596768       0.347823
                                                         0.222222       0.016778
                                                         0.077078      -0.000433

                          1       5    4px               7.884570       0.376572
                                                         3.894698      -0.182875
                                                         1.513589      -0.474776
                                                         0.596768      -0.081757
                                                         0.222222       0.064432
                                                         0.077078       0.047279
                          1       5    4py               7.884570       0.376572
                                                         3.894698      -0.182875
                                                         1.513589      -0.474776
                                                         0.596768      -0.081757
                                                         0.222222       0.064432
                                                         0.077078       0.047279
                          1       5    4pz               7.884570       0.376572
                                                         3.894698      -0.182875
                                                         1.513589      -0.474776
                                                         0.596768      -0.081757
                                                         0.222222       0.064432
                                                         0.077078       0.047279

                          1       6    4dx2              7.884570       3.047350
                                                         3.894698       3.289529
                                                         1.513589       1.060616
                                                         0.596768       0.249930
                                                         0.222222       0.038806
                                                         0.077078       0.002319
                          1       6    4dxy              7.884570       5.278165
                                                         3.894698       5.697631
                                                         1.513589       1.837041
                                                         0.596768       0.432892
                                                         0.222222       0.067214
                                                         0.077078       0.004017
                          1       6    4dxz              7.884570       5.278165
                                                         3.894698       5.697631
                                                         1.513589       1.837041
                                                         0.596768       0.432892
                                                         0.222222       0.067214
                                                         0.077078       0.004017
                          1       6    4dy2              7.884570       3.047350
                                                         3.894698       3.289529
                                                         1.513589       1.060616
                                                         0.596768       0.249930
                                                         0.222222       0.038806
                                                         0.077078       0.002319
                          1       6    4dyz              7.884570       5.278165
                                                         3.894698       5.697631
                                                         1.513589       1.837041
                                                         0.596768       0.432892
                                                         0.222222       0.067214
                                                         0.077078       0.004017
                          1       6    4dz2              7.884570       3.047350
                                                         3.894698       3.289529
                                                         1.513589       1.060616
                                                         0.596768       0.249930
                                                         0.222222       0.038806
                                                         0.077078       0.002319

                          1       7    5dx2              7.884570      -2.119015
                                                         3.894698      -1.237751
                                                         1.513589      -0.746777
                                                         0.596768      -0.071514
                                                         0.222222       0.004086
                                                         0.077078       0.017595
                          1       7    5dxy              7.884570      -3.670241
                                                         3.894698      -2.143848
                                                         1.513589      -1.293455
                                                         0.596768      -0.123865
                                                         0.222222       0.007077
                                                         0.077078       0.030475
                          1       7    5dxz              7.884570      -3.670241
                                                         3.894698      -2.143848
                                                         1.513589      -1.293455
                                                         0.596768      -0.123865
                                                         0.222222       0.007077
                                                         0.077078       0.030475
                          1       7    5dy2              7.884570      -2.119015
                                                         3.894698      -1.237751
                                                         1.513589      -0.746777
                                                         0.596768      -0.071514
                                                         0.222222       0.004086
                                                         0.077078       0.017595
                          1       7    5dyz              7.884570      -3.670241
                                                         3.894698      -2.143848
                                                         1.513589      -1.293455
                                                         0.596768      -0.123865
                                                         0.222222       0.007077
                                                         0.077078       0.030475
                          1       7    5dz2              7.884570      -2.119015
                                                         3.894698      -1.237751
                                                         1.513589      -0.746777
                                                         0.596768      -0.071514
                                                         0.222222       0.004086
                                                         0.077078       0.017595

                          1       8    5fx3              7.884570      -0.342058
                                                         3.894698       0.375798
                                                         1.513589      -0.706469
                                                         0.596768      -0.229994
                                                         0.222222      -0.012723
                                                         0.077078       0.003932
                          1       8    5fx2y             7.884570      -0.764866
                                                         3.894698       0.840310
                                                         1.513589      -1.579712
                                                         0.596768      -0.514282
                                                         0.222222      -0.028450
                                                         0.077078       0.008792
                          1       8    5fx2z             7.884570      -0.764866
                                                         3.894698       0.840310
                                                         1.513589      -1.579712
                                                         0.596768      -0.514282
                                                         0.222222      -0.028450
                                                         0.077078       0.008792
                          1       8    5fxy2             7.884570      -0.764866
                                                         3.894698       0.840310
                                                         1.513589      -1.579712
                                                         0.596768      -0.514282
                                                         0.222222      -0.028450
                                                         0.077078       0.008792
                          1       8    5fxyz             7.884570      -1.324787
                                                         3.894698       1.455460
                                                         1.513589      -2.736142
                                                         0.596768      -0.890763
                                                         0.222222      -0.049276
                                                         0.077078       0.015229
                          1       8    5fxz2             7.884570      -0.764866
                                                         3.894698       0.840310
                                                         1.513589      -1.579712
                                                         0.596768      -0.514282
                                                         0.222222      -0.028450
                                                         0.077078       0.008792
                          1       8    5fy3              7.884570      -0.342058
                                                         3.894698       0.375798
                                                         1.513589      -0.706469
                                                         0.596768      -0.229994
                                                         0.222222      -0.012723
                                                         0.077078       0.003932
                          1       8    5fy2z             7.884570      -0.764866
                                                         3.894698       0.840310
                                                         1.513589      -1.579712
                                                         0.596768      -0.514282
                                                         0.222222      -0.028450
                                                         0.077078       0.008792
                          1       8    5fyz2             7.884570      -0.764866
                                                         3.894698       0.840310
                                                         1.513589      -1.579712
                                                         0.596768      -0.514282
                                                         0.222222      -0.028450
                                                         0.077078       0.008792
                          1       8    5fz3              7.884570      -0.342058
                                                         3.894698       0.375798
                                                         1.513589      -0.706469
                                                         0.596768      -0.229994
                                                         0.222222      -0.012723
                                                         0.077078       0.003932

       Atomic covalent radius [Angstrom]:                                  1.320

       Atomic van der Waals radius [Angstrom]:                             1.760

     GTH Potential information for                                   GTH-PBE-q12

       Description:                       Goedecker-Teter-Hutter pseudopotential
                                           Goedecker et al., PRB 54, 1703 (1996)
                                          Hartwigsen et al., PRB 58, 3641 (1998)
                                                      Krack, TCA 114, 145 (2005)

       Gaussian exponent of the core charge distribution:               3.462604
       Electronic configuration (s p d ...):                           4   6   2

       Parameters of the local part of the GTH pseudopotential:

                          rloc        C1          C2          C3          C4
                        0.380000    8.711442   -0.700287

       Parameters of the non-local part of the GTH pseudopotential:

                   l      r(l)      h(i,j,l)

                   0    0.337771    2.575264    3.692971
                                    3.692971   -4.767605
                   1    0.242531   -4.630541    8.870875
                                    8.870875  -10.496161
                   2    0.243317   -9.406653

  2. Atomic kind: O                                     Number of atoms:     128

     Orbital Basis Set                                     DZVP-MOLOPT-SR-GTH-q6

       Number of orbital shell sets:                                           1
       Number of orbital shells:                                               5
       Number of primitive Cartesian functions:                                5
       Number of Cartesian basis functions:                                   14
       Number of spherical basis functions:                                   13
       Norm type:                                                              2

       Normalised Cartesian orbitals:

                        Set   Shell   Orbital            Exponent    Coefficient

                          1       1    2s               10.389228       0.396646
                                                         3.849621       0.208811
                                                         1.388401      -0.301641
                                                         0.496955      -0.274061
                                                         0.162492      -0.033677

                          1       2    3s               10.389228       0.303673
                                                         3.849621       0.240943
                                                         1.388401      -0.313066
                                                         0.496955      -0.043055
                                                         0.162492       0.213991

                          1       3    3px              10.389228      -1.530415
                                                         3.849621      -1.371928
                                                         1.388401      -0.761951
                                                         0.496955      -0.253695
                                                         0.162492      -0.035541
                          1       3    3py              10.389228      -1.530415
                                                         3.849621      -1.371928
                                                         1.388401      -0.761951
                                                         0.496955      -0.253695
                                                         0.162492      -0.035541
                          1       3    3pz              10.389228      -1.530415
                                                         3.849621      -1.371928
                                                         1.388401      -0.761951
                                                         0.496955      -0.253695
                                                         0.162492      -0.035541

                          1       4    4px              10.389228      -0.565392
                                                         3.849621      -0.038231
                                                         1.388401      -0.382373
                                                         0.496955       0.179070
                                                         0.162492       0.122714
                          1       4    4py              10.389228      -0.565392
                                                         3.849621      -0.038231
                                                         1.388401      -0.382373
                                                         0.496955       0.179070
                                                         0.162492       0.122714
                          1       4    4pz              10.389228      -0.565392
                                                         3.849621      -0.038231
                                                         1.388401      -0.382373
                                                         0.496955       0.179070
                                                         0.162492       0.122714

                          1       5    4dx2             10.389228       1.867377
                                                         3.849621       0.670994
                                                         1.388401       1.353441
                                                         0.496955       0.273538
                                                         0.162492       0.006620
                          1       5    4dxy             10.389228       3.234392
                                                         3.849621       1.162195
                                                         1.388401       2.344229
                                                         0.496955       0.473781
                                                         0.162492       0.011466
                          1       5    4dxz             10.389228       3.234392
                                                         3.849621       1.162195
                                                         1.388401       2.344229
                                                         0.496955       0.473781
                                                         0.162492       0.011466
                          1       5    4dy2             10.389228       1.867377
                                                         3.849621       0.670994
                                                         1.388401       1.353441
                                                         0.496955       0.273538
                                                         0.162492       0.006620
                          1       5    4dyz             10.389228       3.234392
                                                         3.849621       1.162195
                                                         1.388401       2.344229
                                                         0.496955       0.473781
                                                         0.162492       0.011466
                          1       5    4dz2             10.389228       1.867377
                                                         3.849621       0.670994
                                                         1.388401       1.353441
                                                         0.496955       0.273538
                                                         0.162492       0.006620

       Atomic covalent radius [Angstrom]:                                  0.730

       Atomic van der Waals radius [Angstrom]:                             1.520

     GTH Potential information for                                    GTH-PBE-q6

       Description:                       Goedecker-Teter-Hutter pseudopotential
                                           Goedecker et al., PRB 54, 1703 (1996)
                                          Hartwigsen et al., PRB 58, 3641 (1998)
                                                      Krack, TCA 114, 145 (2005)

       Gaussian exponent of the core charge distribution:               8.360253
       Electronic configuration (s p d ...):                               2   4

       Parameters of the local part of the GTH pseudopotential:

                          rloc        C1          C2          C3          C4
                        0.244554  -16.667215    2.487311

       Parameters of the non-local part of the GTH pseudopotential:

                   l      r(l)      h(i,j,l)

                   0    0.220956   18.337458
                   1    0.211332

     A DFT+U correction is applied to atoms of this atomic kind:
       Angular quantum momentum number L:                                      1
       U(eff) = (U - J) value in [eV]:                                     2.900


 MOLECULE KIND INFORMATION


 All atoms are their own molecule, skipping detailed information


 TOTAL NUMBERS AND MAXIMUM NUMBERS

  Total number of            - Atomic kinds:                                   2
                             - Atoms:                                        192
                             - Shell sets:                                   192
                             - Shells:                                      1152
                             - Primitive Cartesian functions:               1024
                             - Cartesian basis functions:                   3776
                             - Spherical basis functions:                   3328

  Maximum angular momentum of- Orbital basis functions:                        3
                             - Local part of the GTH pseudopotential:          2
                             - Non-local part of the GTH pseudopotential:      3


 MODULE QUICKSTEP: ATOMIC COORDINATES IN ANGSTROM

   Atom Kind Element         X             Y             Z       Z(eff)     Mass
      1    1 Ti   22      0.000810      0.000802      0.000000  12.0000  47.8670
      2    1 Ti   22      1.888373      1.888379      4.807507  12.0000  47.8670
      3    1 Ti   22      0.000792      1.888364      2.402071  12.0000  47.8670
      4    1 Ti   22      1.888375      0.000789      7.212946  12.0000  47.8670
      5    1 Ti   22      0.000808      3.776020      0.003060  12.0000  47.8670
      6    1 Ti   22      1.888389     13.237830      4.805775  12.0000  47.8670
      7    1 Ti   22     11.350311      1.888368      2.403682  12.0000  47.8670
      8    1 Ti   22      5.669336      0.000833      7.216994  12.0000  47.8670
      9    1 Ti   22      1.888399      3.776030      7.209866  12.0000  47.8670
     10    1 Ti   22      0.000813     13.237798      2.403811  12.0000  47.8670
     11    1 Ti   22      5.669357      1.888470      4.803434  12.0000  47.8670
     12    1 Ti   22     11.350296      0.000783     -0.001620  12.0000  47.8670
     13    1 Ti   22      3.776024      0.000812     -0.003051  12.0000  47.8670
     14    1 Ti   22     13.237827      1.888383      4.809244  12.0000  47.8670
     15    1 Ti   22     13.237809      0.000809      7.211222  12.0000  47.8670
     16    1 Ti   22      3.776034      1.888408      2.405152  12.0000  47.8670
     17    1 Ti   22      1.888465      5.669362      4.811582  12.0000  47.8670
     18    1 Ti   22      0.000784     11.350304      0.001613  12.0000  47.8670
     19    1 Ti   22      0.000830      5.669338      2.398018  12.0000  47.8670
     20    1 Ti   22      1.888374     11.350305      7.211336  12.0000  47.8670
     21    1 Ti   22      0.000830      7.569708      0.005684  12.0000  47.8670
     22    1 Ti   22      1.888421      9.462849      4.808810  12.0000  47.8670
     23    1 Ti   22      7.569703      1.888458      2.407778  12.0000  47.8670
     24    1 Ti   22      9.462836      0.000808      7.214233  12.0000  47.8670
     25    1 Ti   22      1.888457      7.569695      7.207241  12.0000  47.8670
     26    1 Ti   22      0.000811      9.462838      2.400792  12.0000  47.8670
     27    1 Ti   22      9.462846      1.888423      4.806209  12.0000  47.8670
     28    1 Ti   22      7.569700      0.000832     -0.005681  12.0000  47.8670
     29    1 Ti   22      3.776062      3.776068     -0.000002  12.0000  47.8670
     30    1 Ti   22     13.237819     13.237823      4.807519  12.0000  47.8670
     31    1 Ti   22     11.350223      5.669353      2.399610  12.0000  47.8670
     32    1 Ti   22      5.669358     11.350217      7.215407  12.0000  47.8670
     33    1 Ti   22     13.237801      3.776029      7.208167  12.0000  47.8670
     34    1 Ti   22      3.776035     13.237799      2.406859  12.0000  47.8670
     35    1 Ti   22      5.669365      5.669372      4.807506  12.0000  47.8670
     36    1 Ti   22     11.350305     11.350309     -0.000000  12.0000  47.8670
     37    1 Ti   22     11.350310     13.237822      2.405423  12.0000  47.8670
     38    1 Ti   22      5.669363      3.776136      7.213988  12.0000  47.8670
     39    1 Ti   22      3.776026     11.350277     -0.001466  12.0000  47.8670
     40    1 Ti   22     13.237790      5.669345      4.813289  12.0000  47.8670
     41    1 Ti   22      5.669354     13.237794      4.801733  12.0000  47.8670
     42    1 Ti   22     11.350268      3.776023      0.001464  12.0000  47.8670
     43    1 Ti   22     13.237826     11.350293      7.209600  12.0000  47.8670
     44    1 Ti   22      3.776131      5.669366      2.401031  12.0000  47.8670
     45    1 Ti   22      3.776126      7.569681      0.002671  12.0000  47.8670
     46    1 Ti   22     13.237819      9.462851      4.810519  12.0000  47.8670
     47    1 Ti   22      7.569686      5.669360      2.403699  12.0000  47.8670
     48    1 Ti   22      9.462841     11.350270      7.212634  12.0000  47.8670
     49    1 Ti   22     13.237790      7.569705      7.205539  12.0000  47.8670
     50    1 Ti   22      3.776067      9.462795      2.403847  12.0000  47.8670
     51    1 Ti   22      9.462735      5.669383      4.810329  12.0000  47.8670
     52    1 Ti   22      7.569696     11.350233     -0.004089  12.0000  47.8670
     53    1 Ti   22     11.350277      9.462834      2.402378  12.0000  47.8670
     54    1 Ti   22      5.669359      7.569682      7.211313  12.0000  47.8670
     55    1 Ti   22      5.669383      9.462745      4.804683  12.0000  47.8670
     56    1 Ti   22     11.350225      7.569694      0.004084  12.0000  47.8670
     57    1 Ti   22      9.462795      3.776066      7.211170  12.0000  47.8670
     58    1 Ti   22      7.569715     13.237789      2.409483  12.0000  47.8670
     59    1 Ti   22      7.569674      3.776127     -0.002674  12.0000  47.8670
     60    1 Ti   22      9.462853     13.237828      4.804502  12.0000  47.8670
     61    1 Ti   22      7.569680      7.569687     -0.000001  12.0000  47.8670
     62    1 Ti   22      9.462820      9.462819      4.807508  12.0000  47.8670
     63    1 Ti   22      7.569684      9.462735      2.406515  12.0000  47.8670
     64    1 Ti   22      9.462733      7.569681      7.208503  12.0000  47.8670
     65    2 O     8      0.000916      0.001580      1.991557   6.0000  15.9994
     66    2 O     8      1.884852      1.887540      6.799432   6.0000  15.9994
     67    2 O     8      0.001568      1.884818      4.395725   6.0000  15.9994
     68    2 O     8      1.887562      0.000910      9.202764   6.0000  15.9994
     69    2 O     8      1.884819      0.001568      5.219296   6.0000  15.9994
     70    2 O     8      0.000910      1.887562      0.412258   6.0000  15.9994
     71    2 O     8      1.887540      1.884853      2.815587   6.0000  15.9994
     72    2 O     8      0.001582      0.000915      7.623462   6.0000  15.9994
     73    2 O     8      0.000943      3.775977      1.989539   6.0000  15.9994
     74    2 O     8      1.884819     13.237008      6.799476   6.0000  15.9994
     75    2 O     8     11.351145      1.884848      4.395738   6.0000  15.9994
     76    2 O     8      5.672146      0.000888      9.204077   6.0000  15.9994
     77    2 O     8      1.884951      3.775943      5.221282   6.0000  15.9994
     78    2 O     8      0.000914     13.236996      0.412202   6.0000  15.9994
     79    2 O     8      5.672127      1.884947      2.814354   6.0000  15.9994
     80    2 O     8     11.351124      0.000908      7.623460   6.0000  15.9994
     81    2 O     8      3.775978      0.000943      7.625477   6.0000  15.9994
     82    2 O     8     13.237008      1.884819      2.815544   6.0000  15.9994
     83    2 O     8     13.236998      0.000914      9.202816   6.0000  15.9994
     84    2 O     8      3.775946      1.884952      4.393734   6.0000  15.9994
     85    2 O     8      1.884944      5.672117      6.800667   6.0000  15.9994
     86    2 O     8      0.000908     11.351126      1.991561   6.0000  15.9994
     87    2 O     8      0.000887      5.672151      0.410945   6.0000  15.9994
     88    2 O     8      1.884850     11.351143      5.219281   6.0000  15.9994
     89    2 O     8      0.000886      7.566946      1.992825   6.0000  15.9994
     90    2 O     8      1.884949      9.462869      6.797560   6.0000  15.9994
     91    2 O     8      7.566973      1.884944      4.396927   6.0000  15.9994
     92    2 O     8      9.462838      0.000942      9.200873   6.0000  15.9994
     93    2 O     8      1.884943      7.566969      5.218097   6.0000  15.9994
     94    2 O     8      0.000943      9.462835      0.414150   6.0000  15.9994
     95    2 O     8      9.462867      1.884950      2.817460   6.0000  15.9994
     96    2 O     8      7.566949      0.000887      7.622198   6.0000  15.9994
     97    2 O     8      3.769765      0.001570      1.991986   6.0000  15.9994
     98    2 O     8     13.237572      1.887561      6.799002   6.0000  15.9994
     99    2 O     8      0.001588      5.655903      4.395289   6.0000  15.9994
    100    2 O     8      1.887540     11.353705      9.203189   6.0000  15.9994
    101    2 O     8     13.237568      0.001582      5.219709   6.0000  15.9994
    102    2 O     8      3.769866      1.887580      0.411849   6.0000  15.9994
    103    2 O     8      1.887701      5.656153      2.816043   6.0000  15.9994
    104    2 O     8      0.001567     11.353735      7.623050   6.0000  15.9994
    105    2 O     8     11.353704      1.887540      0.411829   6.0000  15.9994
    106    2 O     8      5.655897      0.001589      5.219728   6.0000  15.9994
    107    2 O     8      5.656160      1.887700      6.798974   6.0000  15.9994
    108    2 O     8     11.353734      0.001568      1.991969   6.0000  15.9994
    109    2 O     8      1.887579      3.769866      9.203171   6.0000  15.9994
    110    2 O     8      0.001582     13.237567      4.395308   6.0000  15.9994
    111    2 O     8      0.001570      3.769764      7.623031   6.0000  15.9994
    112    2 O     8      1.887562     13.237572      2.816017   6.0000  15.9994
    113    2 O     8      3.770015      3.775975      1.990033   6.0000  15.9994
    114    2 O     8     13.237567     13.237000      6.799057   6.0000  15.9994
    115    2 O     8     11.350985      5.656131      4.395280   6.0000  15.9994
    116    2 O     8      5.672120     11.353614      9.204421   6.0000  15.9994
    117    2 O     8     13.237540      3.775979      5.221730   6.0000  15.9994
    118    2 O     8      3.769766     13.237005      0.411768   6.0000  15.9994
    119    2 O     8      5.672171      5.656585      2.814492   6.0000  15.9994
    120    2 O     8     11.351145     11.353707      7.623034   6.0000  15.9994
    121    2 O     8     11.353738     13.237006      0.411787   6.0000  15.9994
    122    2 O     8      5.656357      3.776098      5.221544   6.0000  15.9994
    123    2 O     8      3.775946     11.353608      7.625033   6.0000  15.9994
    124    2 O     8     13.236990      5.655913      2.815976   6.0000  15.9994
    125    2 O     8      5.655922     13.236992      6.799039   6.0000  15.9994
    126    2 O     8     11.353607      3.775942      1.989986   6.0000  15.9994
    127    2 O     8     13.237008     11.353736      9.203233   6.0000  15.9994
    128    2 O     8      3.776092      5.656362      4.393476   6.0000  15.9994
    129    2 O     8      5.656587      5.672177      6.800531   6.0000  15.9994
    130    2 O     8     11.353707     11.351146      1.991987   6.0000  15.9994
    131    2 O     8     13.237007      3.769763      9.203251   6.0000  15.9994
    132    2 O     8      3.775977     13.237543      4.393287   6.0000  15.9994
    133    2 O     8     11.353614      5.672119      0.410599   6.0000  15.9994
    134    2 O     8      5.656121     11.350985      5.219737   6.0000  15.9994
    135    2 O     8      3.775982      3.770016      7.624991   6.0000  15.9994
    136    2 O     8     13.236997     13.237567      2.815962   6.0000  15.9994
    137    2 O     8     13.237574     11.351123      5.219709   6.0000  15.9994
    138    2 O     8      3.770055      5.672104      0.410548   6.0000  15.9994
    139    2 O     8      5.672153     13.237594      2.814700   6.0000  15.9994
    140    2 O     8     11.351105      3.769859      7.623055   6.0000  15.9994
    141    2 O     8      3.769858     11.351107      1.991966   6.0000  15.9994
    142    2 O     8     13.237596      5.672146      6.800321   6.0000  15.9994
    143    2 O     8     11.351126     13.237574      4.395315   6.0000  15.9994
    144    2 O     8      5.672112      3.770056      9.204474   6.0000  15.9994
    145    2 O     8      3.770051      7.566983      1.993218   6.0000  15.9994
    146    2 O     8     13.237540      9.462837      6.797113   6.0000  15.9994
    147    2 O     8      7.566918      5.656563      4.396788   6.0000  15.9994
    148    2 O     8      9.462866     11.353613      9.201318   6.0000  15.9994
    149    2 O     8     13.237597      7.566943      5.218445   6.0000  15.9994
    150    2 O     8      3.770009      9.462832      0.413661   6.0000  15.9994
    151    2 O     8      9.462713      5.656362      2.817734   6.0000  15.9994
    152    2 O     8      7.566970     11.353617      7.621850   6.0000  15.9994
    153    2 O     8     11.353613      9.462868      0.413703   6.0000  15.9994
    154    2 O     8      5.656559      7.566910      5.218231   6.0000  15.9994
    155    2 O     8      5.656366      9.462712      6.797283   6.0000  15.9994
    156    2 O     8     11.353616      7.566973      1.993170   6.0000  15.9994
    157    2 O     8      9.462830      3.770009      9.201358   6.0000  15.9994
    158    2 O     8      7.566941     13.237598      4.396581   6.0000  15.9994
    159    2 O     8      7.566982      3.770055      7.621799   6.0000  15.9994
    160    2 O     8      9.462836     13.237540      2.817912   6.0000  15.9994
    161    2 O     8      7.582862      0.001586      1.991571   6.0000  15.9994
    162    2 O     8      9.468700      1.887579      6.799393   6.0000  15.9994
    163    2 O     8      0.001569      9.468795      4.395720   6.0000  15.9994
    164    2 O     8      1.887689      7.582635      9.202766   6.0000  15.9994
    165    2 O     8      9.468796      0.001570      5.219299   6.0000  15.9994
    166    2 O     8      7.582639      1.887689      0.412252   6.0000  15.9994
    167    2 O     8      1.887575      9.468699      2.815626   6.0000  15.9994
    168    2 O     8      0.001586      7.582863      7.623446   6.0000  15.9994
    169    2 O     8      7.582418      3.776084      1.989743   6.0000  15.9994
    170    2 O     8      9.468796     13.237008      6.799472   6.0000  15.9994
    171    2 O     8     11.351104      9.468708      4.395699   6.0000  15.9994
    172    2 O     8      5.672162      7.582221      9.204282   6.0000  15.9994
    173    2 O     8      9.468559      3.775975      5.221262   6.0000  15.9994
    174    2 O     8      7.582862     13.236993      0.412185   6.0000  15.9994
    175    2 O     8      5.672100      9.468526      2.814323   6.0000  15.9994
    176    2 O     8     11.350999      7.582651      7.623459   6.0000  15.9994
    177    2 O     8      3.776082      7.582419      7.625273   6.0000  15.9994
    178    2 O     8     13.237005      9.468795      2.815547   6.0000  15.9994
    179    2 O     8     13.236993      7.582861      9.202834   6.0000  15.9994
    180    2 O     8      3.775970      9.468556      4.393757   6.0000  15.9994
    181    2 O     8      9.468526      5.672110      6.800692   6.0000  15.9994
    182    2 O     8      7.582651     11.351000      1.991560   6.0000  15.9994
    183    2 O     8      7.582223      5.672170      0.410739   6.0000  15.9994
    184    2 O     8      9.468707     11.351105      5.219321   6.0000  15.9994
    185    2 O     8      7.582228      7.566926      1.993032   6.0000  15.9994
    186    2 O     8      9.468565      9.462839      6.797579   6.0000  15.9994
    187    2 O     8      7.566968      9.468530      4.396950   6.0000  15.9994
    188    2 O     8      9.462729      7.582430      9.201062   6.0000  15.9994
    189    2 O     8      9.468528      7.566989      5.218069   6.0000  15.9994
    190    2 O     8      7.582429      9.462726      0.413959   6.0000  15.9994
    191    2 O     8      9.462833      9.468564      2.817444   6.0000  15.9994
    192    2 O     8      7.566928      7.582231      7.621991   6.0000  15.9994



 SCF PARAMETERS         Density guess:                                   RESTART
                        --------------------------------------------------------
                        max_scf:                                              40
                        max_scf_history:                                       0
                        max_diis:                                              4
                        --------------------------------------------------------
                        eps_scf:                                        1.00E-06
                        eps_scf_history:                                0.00E+00
                        eps_diis:                                       1.00E-01
                        eps_eigval:                                     1.00E-05
                        --------------------------------------------------------
                        level_shift [a.u.]:                             0.000000
                        --------------------------------------------------------
                        Outer loop SCF in use 
                        No variables optimised in outer loop
                        eps_scf                                         1.00E-06
                        max_scf                                               60
                        No outer loop optimization
                        step_size                                       5.00E-01

 PW_GRID| Information for grid number                                          1
 PW_GRID| Grid distributed over                                   128 processors
 PW_GRID| Real space group dimensions                                   128    1
 PW_GRID| the grid is blocked:                                                NO
 PW_GRID| Cutoff [a.u.]                                                    300.0
 PW_GRID| spherical cutoff:                                                   NO
 PW_GRID|   Bounds   1           -112     112                Points:         225
 PW_GRID|   Bounds   2           -112     112                Points:         225
 PW_GRID|   Bounds   3            -72      71                Points:         144
 PW_GRID| Volume element (a.u.^3)  0.2035E-02     Volume (a.u.^3)     14833.7304
 PW_GRID| Grid span                                                    FULLSPACE
 PW_GRID|   Distribution                         Average         Max         Min
 PW_GRID|   G-Vectors                            56953.1       57150       56925
 PW_GRID|   G-Rays                                 253.1         254         253
 PW_GRID|   Real Space Points                    56953.1       64800       32400

 PW_GRID| Information for grid number                                          2
 PW_GRID| Number of the reference grid                                         1
 PW_GRID| Grid distributed over                                   128 processors
 PW_GRID| Real space group dimensions                                   128    1
 PW_GRID| the grid is blocked:                                                NO
 PW_GRID| Cutoff [a.u.]                                                    100.0
 PW_GRID| spherical cutoff:                                                   NO
 PW_GRID|   Bounds   1            -67      67                Points:         135
 PW_GRID|   Bounds   2            -67      67                Points:         135
 PW_GRID|   Bounds   3            -40      40                Points:          81
 PW_GRID| Volume element (a.u.^3)  0.1005E-01     Volume (a.u.^3)     14833.7304
 PW_GRID| Grid span                                                    FULLSPACE
 PW_GRID|   Distribution                         Average         Max         Min
 PW_GRID|   G-Vectors                            11533.0       12150       10800
 PW_GRID|   G-Rays                                  85.4          90          80
 PW_GRID|   Real Space Points                    11533.0       21870       10935

 PW_GRID| Information for grid number                                          3
 PW_GRID| Number of the reference grid                                         1
 PW_GRID| Grid distributed over                                   128 processors
 PW_GRID| Real space group dimensions                                     8   16
 PW_GRID| the grid is blocked:                                                NO
 PW_GRID| Cutoff [a.u.]                                                     33.3
 PW_GRID| spherical cutoff:                                                   NO
 PW_GRID|   Bounds   1            -37      37                Points:          75
 PW_GRID|   Bounds   2            -37      37                Points:          75
 PW_GRID|   Bounds   3            -24      23                Points:          48
 PW_GRID| Volume element (a.u.^3)  0.5494E-01     Volume (a.u.^3)     14833.7304
 PW_GRID| Grid span                                                    FULLSPACE
 PW_GRID|   Distribution                         Average         Max         Min
 PW_GRID|   G-Vectors                             2109.4        2475        1725
 PW_GRID|   G-Rays                                  28.1          33          23
 PW_GRID|   Real Space Points                     2109.4        2400        1728

 PW_GRID| Information for grid number                                          4
 PW_GRID| Number of the reference grid                                         1
 PW_GRID| Grid distributed over                                   128 processors
 PW_GRID| Real space group dimensions                                     8   16
 PW_GRID| the grid is blocked:                                                NO
 PW_GRID| Cutoff [a.u.]                                                     11.1
 PW_GRID| spherical cutoff:                                                   NO
 PW_GRID|   Bounds   1            -22      22                Points:          45
 PW_GRID|   Bounds   2            -22      22                Points:          45
 PW_GRID|   Bounds   3            -13      13                Points:          27
 PW_GRID| Volume element (a.u.^3)  0.2713         Volume (a.u.^3)     14833.7304
 PW_GRID| Grid span                                                    FULLSPACE
 PW_GRID|   Distribution                         Average         Max         Min
 PW_GRID|   G-Vectors                              427.1         585         270
 PW_GRID|   G-Rays                                   9.5          13           6
 PW_GRID|   Real Space Points                      427.1         486         270

 POISSON| Solver                                                        PERIODIC
 POISSON| Periodicity                                                        XYZ

 RS_GRID| Information for grid number                                          1
 RS_GRID|   Bounds   1           -112     112                Points:         225
 RS_GRID|   Bounds   2           -112     112                Points:         225
 RS_GRID|   Bounds   3            -72      71                Points:         144
 RS_GRID| Real space distribution over                                  8 groups
 RS_GRID| Real space distribution along direction                              1
 RS_GRID| Border size                                                         26
 RS_GRID| Real space distribution over                                 16 groups
 RS_GRID| Real space distribution along direction                              2
 RS_GRID| Border size                                                         26
 RS_GRID|   Distribution                         Average         Max         Min
 RS_GRID|   Planes                                  80.1          81          80
 RS_GRID|   Distribution                         Average         Max         Min
 RS_GRID|   Planes                                  66.1          67          66

 RS_GRID| Information for grid number                                          2
 RS_GRID|   Bounds   1            -67      67                Points:         135
 RS_GRID|   Bounds   2            -67      67                Points:         135
 RS_GRID|   Bounds   3            -40      40                Points:          81
 RS_GRID| Real space distribution over                                  8 groups
 RS_GRID| Real space distribution along direction                              1
 RS_GRID| Border size                                                         24
 RS_GRID| Real space distribution over                                 16 groups
 RS_GRID| Real space distribution along direction                              2
 RS_GRID| Border size                                                         24
 RS_GRID|   Distribution                         Average         Max         Min
 RS_GRID|   Planes                                  64.9          65          64
 RS_GRID|   Distribution                         Average         Max         Min
 RS_GRID|   Planes                                  56.4          57          56

 RS_GRID| Information for grid number                                          3
 RS_GRID|   Bounds   1            -37      37                Points:          75
 RS_GRID|   Bounds   2            -37      37                Points:          75
 RS_GRID|   Bounds   3            -24      23                Points:          48
 RS_GRID| Real space fully replicated
 RS_GRID| Group size                                                           1

 RS_GRID| Information for grid number                                          4
 RS_GRID|   Bounds   1            -22      22                Points:          45
 RS_GRID|   Bounds   2            -22      22                Points:          45
 RS_GRID|   Bounds   3            -13      13                Points:          27
 RS_GRID| Real space fully replicated
 RS_GRID| Group size                                                           1

 BFGS| Use rational function optimization for step estimation:                NO
 BFGS| Use model Hessian for initial guess:                                  YES
 BFGS| Restart Hessian:                                                       NO
 BFGS| Trust radius:                                                       0.472

 *******************************************************************************
 ***                     STARTING GEOMETRY OPTIMIZATION                      ***
 ***                                   BFGS                                  ***
 *******************************************************************************

 Spin 1

 Number of electrons:                                                        768
 Number of occupied orbitals:                                                768
 Number of molecular orbitals:                                               768

 Spin 2

 Number of electrons:                                                        767
 Number of occupied orbitals:                                                767
 Number of molecular orbitals:                                               767

 Number of orbital functions:                                               3328
 Number of independent orbital functions:                                   3328

 Extrapolation method: initial_guess

 *** WARNING in qs_initial_guess.F:306 :: User requested to restart the    ***
 *** wavefunction from the file named: tio2-RESTART.wfn. This file does    ***
 *** not exist. Please check the existence of the file or change properly  ***
 *** the value of the keyword WFN_RESTART_FILE_NAME. Calculation continues ***
 *** using ATOMIC GUESS.                                                   ***


 Atomic guess: The first density matrix is obtained in terms of atomic orbitals
               and electronic configurations assigned to each atomic kind

 Guess for atomic kind: Ti

 Electronic structure
    Total number of core electrons                                         10.00
    Total number of valence electrons                                      12.00
    Total number of electrons                                              22.00
    Multiplicity                                                   not specified
    S   [  2.00  2.00] 2.00  2.00
    P   [  6.00] 6.00
    D      2.00


 *******************************************************************************
                  Iteration          Convergence                     Energy [au]
 *******************************************************************************
                          1         2.59099                     -56.573945749309
                          2        0.737518                     -57.461623245624
                          3        0.123244E-01                 -57.676656834797
                          4        0.338536E-02                 -57.676690535970
                          5        0.252157E-03                 -57.676697146183
                          6        0.162704E-05                 -57.676697160103
                          7        0.846593E-06                 -57.676697160104

 Energy components [Hartree]           Total Energy ::          -57.676697160104
                                        Band Energy ::          -13.440549799540
                                     Kinetic Energy ::           25.008468428381
                                   Potential Energy ::          -82.685165588485
                                      Virial (-V/T) ::            3.306286661467
                                        Core Energy ::          -97.155838374470
                                          XC Energy ::           -6.919409696495
                                     Coulomb Energy ::           46.398550910862
                       Total Pseudopotential Energy ::         -122.259340742080
                       Local Pseudopotential Energy ::         -118.928992669456
                    Nonlocal Pseudopotential Energy ::           -3.330348072625
                                        Confinement ::            0.950339392289

 Orbital energies  State     L     Occupation   Energy[a.u.]          Energy[eV]

                       1     0          2.000      -2.312566          -62.928123
                       2     0          2.000      -0.123060           -3.348633

                       1     1          6.000      -1.385567          -37.703193

                       1     2          2.000      -0.127948           -3.481643


 Total Electron Density at R=0:                                         0.004726

 Guess for atomic kind: O

 Electronic structure
    Total number of core electrons                                          2.00
    Total number of valence electrons                                       6.00
    Total number of electrons                                               8.00
    Multiplicity                                                   not specified
    S   [  2.00] 2.00
    P      4.00


 *******************************************************************************
                  Iteration          Convergence                     Energy [au]
 *******************************************************************************
                          1        0.702811                     -15.577904332270
                          2        0.612408                     -15.588447180504
                          3        0.955344E-02                 -15.655871208406
                          4        0.223754E-02                 -15.655885053552
                          5        0.157183E-02                 -15.655885461027
                          6        0.124953E-02                 -15.655885607150
                          7        0.312011E-06                 -15.655885858066

 Energy components [Hartree]           Total Energy ::          -15.655885858066
                                        Band Energy ::           -2.983128125584
                                     Kinetic Energy ::           11.754765134683
                                   Potential Energy ::          -27.410650992749
                                      Virial (-V/T) ::            2.331875684345
                                        Core Energy ::          -26.153522949072
                                          XC Energy ::           -3.157392363346
                                     Coulomb Energy ::           13.655029454351
                       Total Pseudopotential Energy ::          -37.943026860963
                       Local Pseudopotential Energy ::          -39.220419683052
                    Nonlocal Pseudopotential Energy ::            1.277392822089
                                        Confinement ::            0.347387772086

 Orbital energies  State     L     Occupation   Energy[a.u.]          Energy[eV]

                       1     0          2.000      -0.861522          -23.443215

                       1     1          4.000      -0.315021           -8.572154


 Total Electron Density at R=0:                                         0.000093

 Spin 1
 Re-scaling the density matrix to get the right number of electrons for spin 1
                  # Electrons              Trace(P)               Scaling factor
                          768               768.001                        1.000

 Spin 2
 Re-scaling the density matrix to get the right number of electrons for spin 2
                  # Electrons              Trace(P)               Scaling factor
                          767               768.001                        0.999


 SCF WAVEFUNCTION OPTIMIZATION

  ----------------------------------- OT ---------------------------------------
  Minimizer      : DIIS                : direct inversion
                                         in the iterative subspace
                                         using   7 DIIS vectors
                                         safer DIIS on
  Preconditioner : FULL_SINGLE_INVERSE : inversion of 
                                         H + eS - 2*(Sc)(c^T*H*c+const)(Sc)^T
  Precond_solver : DEFAULT
  stepsize       :    0.08000000                  energy_gap     :    0.08000000
  eps_taylor     :   0.10000E-15                  max_taylor     :             4
  ----------------------------------- OT ---------------------------------------

  Step     Update method      Time    Convergence         Total energy    Change
  ------------------------------------------------------------------------------
     1 OT DIIS     0.80E-01    2.0     0.01004936     -5657.5587080404 -5.66E+03
     2 OT DIIS     0.80E-01    1.5     0.00725544     -5692.5454355224 -3.50E+01
     3 OT DIIS     0.80E-01    1.5     0.00458177     -5725.4803691219 -3.29E+01
     4 OT DIIS     0.80E-01    1.5     0.00364975     -5735.6486281241 -1.02E+01
     5 OT DIIS     0.80E-01    1.5     0.00267027     -5747.0802725683 -1.14E+01
     6 OT DIIS     0.80E-01    1.5     0.00220108     -5753.9898574729 -6.91E+00
     7 OT DIIS     0.80E-01    1.5     0.00184324     -5760.1571344817 -6.17E+00
     8 OT DIIS     0.80E-01    1.5     0.00147594     -5766.1069588424 -5.95E+00
     9 OT DIIS     0.80E-01    1.5     0.00127847     -5769.7171625979 -3.61E+00
    10 OT DIIS     0.80E-01    1.6     0.00099690     -5772.9928463949 -3.28E+00
    11 OT DIIS     0.80E-01    1.5     0.00090984     -5773.8095458925 -8.17E-01
    12 OT DIIS     0.80E-01    1.5     0.00073650     -5775.6235985565 -1.81E+00
    13 OT DIIS     0.80E-01    1.5     0.00060509     -5776.9670808755 -1.34E+00
    14 OT DIIS     0.80E-01    1.5     0.00050118     -5777.9002933587 -9.33E-01
    15 OT DIIS     0.80E-01    1.5     0.00045179     -5778.3834455693 -4.83E-01
    16 OT DIIS     0.80E-01    1.5     0.00038108     -5778.9148754753 -5.31E-01
    17 OT DIIS     0.80E-01    1.5     0.00035409     -5779.1316301450 -2.17E-01
    18 OT DIIS     0.80E-01    1.6     0.00030737     -5779.4588169366 -3.27E-01
    19 OT DIIS     0.80E-01    1.5     0.00026930     -5779.6809159019 -2.22E-01
    20 OT DIIS     0.80E-01    1.5     0.00025575     -5779.7901373175 -1.09E-01
    21 OT DIIS     0.80E-01    1.5     0.00023540     -5779.9748701971 -1.85E-01
    22 OT DIIS     0.80E-01    1.5     0.00021810     -5780.0857856999 -1.11E-01
    23 OT DIIS     0.80E-01    1.5     0.00019604     -5780.2481591874 -1.62E-01
    24 OT DIIS     0.80E-01    1.5     0.00017457     -5780.3496323489 -1.01E-01
    25 OT DIIS     0.80E-01    1.5     0.00017490     -5780.3845659139 -3.49E-02
    26 OT DIIS     0.80E-01    1.4     0.00014552     -5780.4916399381 -1.07E-01
    27 OT DIIS     0.80E-01    1.5     0.00014269     -5780.5279604880 -3.63E-02
    28 OT DIIS     0.80E-01    1.5     0.00013514     -5780.5631642205 -3.52E-02
    29 OT SD       0.80E-01    1.5     0.00013085     -5780.6093523336 -4.62E-02
    30 OT DIIS     0.80E-01    1.5     0.00012644     -5780.6162194096 -6.87E-03
    31 OT DIIS     0.80E-01    1.5     0.00012152     -5780.6628369431 -4.66E-02
    32 OT DIIS     0.80E-01    1.5     0.00010744     -5780.7006969559 -3.79E-02
    33 OT DIIS     0.80E-01    1.5     0.00009741     -5780.7348097203 -3.41E-02
    34 OT DIIS     0.80E-01    1.5     0.00008945     -5780.7687932872 -3.40E-02
    35 OT DIIS     0.80E-01    1.5     0.00008568     -5780.7883424131 -1.95E-02
    36 OT DIIS     0.80E-01    1.4     0.00008052     -5780.8027419251 -1.44E-02
    37 OT DIIS     0.80E-01    1.5     0.00007944     -5780.8132325678 -1.05E-02
    38 OT DIIS     0.80E-01    1.5     0.00007759     -5780.8175966037 -4.36E-03
    39 OT DIIS     0.80E-01    1.4     0.00007468     -5780.8323847028 -1.48E-02
    40 OT DIIS     0.80E-01    1.5     0.00006993     -5780.8559708483 -2.36E-02

  Leaving inner SCF loop after reaching    40 steps.


  Electronic density on regular grids:      -1534.9999999999        0.0000000001
  Core density on regular grids:             1535.9999999995       -0.0000000005
  Total charge density on r-space grids:        0.9999999996
  Total charge density g-space grids:           0.9999999996

  Overlap energy of the core charge distribution:               0.00000000000325
  Self energy of the core charge distribution:             -12156.89556134359555
  Core Hamiltonian energy:                                   3264.84471448325439
  Hartree energy:                                            4026.15008292156472
  Exchange-correlation energy:                               -923.03599868027038

  DFT+U energy:                                                 8.08079177070396

  Total energy:                                             -5780.85597084833807

  outer SCF iter =    1 RMS gradient =   0.70E-04 energy =      -5780.8559708483

  ----------------------------------- OT ---------------------------------------
[...]
       0.06815187      0.06847488      0.06848799      0.06854363
       0.06862451      0.06870433      0.06886652      0.06898106
       0.06922776      0.07002617      0.07021346      0.07047381
       0.07073188      0.07584829      0.07645557      0.07661675
       0.07675439      0.07973550      0.07996030      0.07998294
       0.08000584      0.08119403      0.08128063      0.08148993
       0.08156965      0.08168189      0.08172964      0.08228663
       0.08239199      0.08248333      0.08259525      0.08296385
       0.08297323      0.08308216      0.08325595      0.08334628
       0.08607314      0.08959725      0.09006359      0.09026477
       0.09057191      0.09083911      0.09085488      0.09120832
       0.09145556      0.09159615      0.09170154      0.09197449
       0.09463361      0.09540494      0.09657161      0.09673055
       0.09681532      0.09735015      0.09740508      0.09746224
       0.09752947      0.09802307      0.10034094      0.10054264
       0.10116315      0.10134718      0.10147907      0.10162126
       0.10196962      0.10211811      0.10239156      0.10248035
       0.10267920      0.10279075      0.10282784      0.10293405
       0.10326721      0.10342411      0.10348038      0.10355765
       0.10418313      0.10476642      0.10532717      0.10591196
       0.10720446      0.10730912      0.10777662      0.10805758
       0.10811940      0.10837576      0.10845986      0.10878620
       0.10889115      0.10915645      0.10933191      0.10958966
       0.11014662      0.11023208      0.11029794      0.11040356
       0.11040985      0.11048079      0.11064655      0.11067238
       0.11113351      0.11194548      0.11263038      0.11282306
       0.11296009      0.11307224      0.11334489      0.11339922
       0.11358264      0.11412446      0.11460409      0.11479491
       0.11544848      0.11673311      0.11679391      0.11683938
       0.11689876      0.11736394      0.11743015      0.11779480
       0.11792326      0.11868916      0.11880702      0.11891684
       0.11934511      0.11964559      0.11990169      0.12019672
       0.12046347      0.12048450      0.12087194      0.12101719
       0.12157107      0.12170816      0.12173387      0.12218672
       0.12228554      0.12284547      0.12285991      0.12287221
       0.12290838      0.12750386      0.12756802      0.12783980
       0.12821570      0.13045362      0.13687793      0.13708663
       0.13853871      0.13866108      0.13876418      0.13933594
       0.13949698      0.13963706      0.14255659      0.14319887
       0.14498856      0.14504958      0.14517407      0.14563286
       0.14569980      0.14589783      0.14633050      0.14663781
       0.14707843      0.14717625      0.14763684      0.14780942
       0.14807714      0.14880374      0.14908429      0.14945939
       0.14960775      0.14962552      0.14999245      0.15025558
       0.15060479      0.15123506      0.15151807      0.15188764
       0.15192662      0.15355437      0.15369222      0.15412513
       0.15450169      0.15456586      0.15483239      0.15498317
       0.15518885      0.15541847      0.15592939      0.15713372
       0.15743213      0.15790656      0.15832878      0.15977152
       0.16003563      0.16014904      0.16098518      0.16127084
       0.16131398      0.16146306      0.16164288      0.16181420
       0.16262747      0.16270819      0.16301283      0.16327498
       0.16330815      0.16351839      0.16426186      0.16452132
       0.16521338      0.16690291      0.16743554      0.16799551
       0.16891278      0.16899803      0.16914366      0.16920358
       0.16927176      0.16932581      0.16938543      0.16952607
       0.16964986      0.16974422      0.17016272      0.17027020
       0.17059827      0.17291465      0.17297027      0.17312281
       0.17345829      0.17353834      0.17388181      0.17413216
       0.17419808      0.17419841      0.17429399      0.17504674
       0.17594233      0.17607674      0.17648263      0.17651897
       0.17665376      0.17667005      0.17676644      0.17760107
       0.17779353      0.17810827      0.18101900      0.18245488
       0.18268165      0.18281936      0.18317174      0.18318965
       0.18362458      0.18367132      0.18393733      0.18406003
       0.18410025      0.18425195      0.18762970      0.18765229
       0.18882192      0.18965495      0.19006668      0.19044287
 Fermi Energy [eV] :    5.182214
  
  Eigenvalues of the occupied subspace spin            2
 ---------------------------------------------
      -1.93363470     -1.93307619     -1.93268858     -1.93257192
      -1.93237878     -1.93235095     -1.93230342     -1.93219693
      -1.93218529     -1.93206610     -1.93199396     -1.93197713
      -1.93196843     -1.93191615     -1.93188057     -1.93183354
      -1.93177287     -1.93171466     -1.93169963     -1.93164835
      -1.93162193     -1.93161580     -1.93156692     -1.93156013
      -1.93151501     -1.93148201     -1.93146244     -1.93143938
      -1.93141748     -1.93138155     -1.93136428     -1.93130428
      -1.93129463     -1.93129083     -1.93126811     -1.93121406
      -1.93120188     -1.93119290     -1.93113821     -1.93110252
      -1.93109211     -1.93106286     -1.93104404     -1.93099149
      -1.93097708     -1.93095488     -1.93089611     -1.93085428
      -1.93085362     -1.93079631     -1.93077306     -1.93073120
      -1.93068188     -1.93067312     -1.93059139     -1.93057528
      -1.93049332     -1.93041908     -1.93034044     -1.93031239
      -1.93023902     -1.92999420     -1.92948441     -1.92922974
      -1.01228019     -1.01183380     -1.01167092     -1.01154474
      -1.01149837     -1.01136812     -1.01130422     -1.01123963
      -1.01119269     -1.01099751     -1.01083704     -1.01076121
      -1.01063031     -1.01060385     -1.01057142     -1.01051833
      -1.01040989     -1.01037467     -1.01035517     -1.01032442
      -1.01022638     -1.00995583     -1.00990274     -1.00978817
      -1.00956024     -1.00863487     -1.00860658     -1.00836680
      -1.00820957     -1.00812403     -1.00799025     -1.00798763
      -1.00798001     -1.00797113     -1.00793812     -1.00792940
      -1.00789103     -1.00785539     -1.00781239     -1.00778719
      -1.00770430     -1.00768084     -1.00765511     -1.00761205
      -1.00745808     -1.00699263     -1.00696997     -1.00683827
      -1.00668731     -1.00633749     -1.00620805     -1.00620143
      -1.00610514     -1.00593707     -1.00585773     -1.00569729
      -1.00565936     -1.00561368     -1.00525986     -1.00516961
      -1.00511321     -1.00504313     -1.00490288     -1.00481460
      -1.00471839     -1.00469752     -1.00467556     -1.00463064
      -1.00457419     -1.00453782     -1.00448893     -1.00445371
      -1.00436402     -1.00432349     -1.00430247     -1.00426635
      -1.00420428     -1.00415183     -1.00405526     -1.00403120
      -1.00399129     -1.00390485     -1.00383533     -1.00380180
      -1.00378418     -1.00377351     -1.00373053     -1.00368904
      -1.00366799     -1.00365176     -1.00363245     -1.00359119
      -1.00354805     -1.00353440     -1.00351909     -1.00347912
      -1.00345107     -1.00341924     -1.00341576     -1.00338626
      -1.00338334     -1.00333966     -1.00332273     -1.00330701
      -1.00321904     -1.00320008     -1.00314194     -1.00313278
      -1.00302111     -1.00292631     -1.00288996     -1.00287357
      -1.00281004     -1.00270823     -1.00265283     -1.00264286
      -1.00253827     -1.00252091     -1.00247279     -1.00244928
      -1.00242224     -1.00239965     -1.00235964     -1.00183509
      -1.00177306     -1.00171673     -1.00160809     -1.00103374
      -1.00095615     -1.00085869     -1.00073307     -1.00068547
      -1.00064157     -1.00056467     -1.00055025     -1.00044411
      -1.00041660     -1.00039988     -1.00026125     -1.00022707
      -1.00019779     -1.00018686     -1.00017024     -1.00008425
      -1.00005439     -1.00003828     -0.99996326     -0.99994082
      -0.99990768     -0.99988354     -0.99987385     -0.99982097
      -0.99979052     -0.99974402     -0.99969630     -0.99968359
      -0.99963459     -0.99961125     -0.99958500     -0.99954303
      -0.99948396     -0.99947207     -0.99942823     -0.99935189
      -0.99932395     -0.99927169     -0.99921462     -0.99917999
      -0.99908235     -0.99898868     -0.99895305     -0.99874423
      -0.99861326     -0.99857209     -0.99856054     -0.99854401
      -0.99841720     -0.99836727     -0.99831298     -0.99823458
      -0.99818627     -0.99818396     -0.99807584     -0.99795187
      -0.99779378     -0.99774719     -0.99767419     -0.99756675
      -0.99755400     -0.99744247     -0.99740789     -0.99720705
      -0.43394754     -0.42499664     -0.42472107     -0.42465356
      -0.42455751     -0.41496804     -0.41442390     -0.41400945
      -0.41396113     -0.41367214     -0.41350516     -0.41330025
      -0.41321985     -0.41293138     -0.41260863     -0.41149042
      -0.41132621     -0.41131740     -0.41128098     -0.40232663
      -0.40155045     -0.40083405     -0.40071388     -0.40054429
      -0.40051348     -0.40036956     -0.40033837     -0.39950380
      -0.39937724     -0.39901519     -0.39891550     -0.39807627
      -0.39798922     -0.39792959     -0.39789112     -0.39783419
      -0.39770493     -0.39765575     -0.39761836     -0.39479587
      -0.39175219     -0.39041581     -0.38990645     -0.38987563
      -0.38981514     -0.38805168     -0.38771269     -0.38701725
      -0.38675969     -0.38669540     -0.38648795     -0.38635343
      -0.38631858     -0.38625536     -0.38602442     -0.38593648
      -0.38582695     -0.38576105     -0.38568130     -0.38428021
      -0.38424279     -0.38404084     -0.38403627     -0.38374104
      -0.38316190     -0.38283451     -0.38266694     -0.38255978
      -0.38249785     -0.38247654     -0.38235760     -0.38143672
      -0.38124054     -0.38084101     -0.38083471     -0.38075008
      -0.38068126     -0.38063114     -0.38048742     -0.38008812
      -0.37968679     -0.37952095     -0.37948069     -0.37890220
      -0.37878545     -0.37877474     -0.37856355     -0.37853766
      -0.37849960     -0.37846914     -0.37843845     -0.37794929
      -0.37718373     -0.37658999     -0.37650497     -0.37637007
      -0.37593146     -0.37562279     -0.37526277     -0.37510067
      -0.37481069     -0.37472100     -0.37456706     -0.37415174
      -0.37409201     -0.37402502     -0.37400007     -0.37394255
      -0.37387588     -0.37382918     -0.37381147     -0.37380160
      -0.37370554     -0.37366404     -0.37364079     -0.37360750
      -0.37355603     -0.37344823     -0.37342679     -0.37214827
      -0.37165909     -0.37155329     -0.37139437     -0.37089834
      -0.37003522     -0.36996066     -0.36981362     -0.36762731
       0.02761331      0.02763800      0.02820602      0.02853938
       0.02872086      0.02898441      0.02902584      0.02931421
       0.03026298      0.03026985      0.03037929      0.03040767
       0.03061778      0.03076173      0.03076833      0.03088490
       0.03104786      0.03120849      0.03125626      0.03142462
       0.03159230      0.03172615      0.03187230      0.03196205
       0.03234566      0.03248588      0.03252210      0.03270780
       0.03283856      0.03293730      0.03305811      0.03348875
       0.03398490      0.03404864      0.03406938      0.03411324
       0.03426189      0.03429049      0.03431916      0.03449558
       0.03475387      0.03496652      0.03497606      0.03508317
       0.03728490      0.03737234      0.03744989      0.03755804
       0.03942471      0.04028586      0.04103088      0.04111697
       0.04139014      0.04145506      0.04153996      0.04204511
       0.04246230      0.04248080      0.04252259      0.04254441
       0.04265432      0.04266555      0.04285449      0.04321684
       0.04576816      0.04613238      0.04620538      0.04637622
       0.04797122      0.04850177      0.04853182      0.04869136
       0.04986628      0.05293307      0.05308374      0.05385252
       0.05397560      0.05401388      0.05434098      0.05469506
       0.05481043      0.05489236      0.05534333      0.05538228
       0.05565605      0.05569385      0.05574596      0.05681579
       0.05686909      0.05712404      0.05716013      0.05773588
       0.05786513      0.05818084      0.05859893      0.05869750
       0.05875001      0.05912827      0.05948500      0.05952549
       0.05957143      0.05967860      0.05975153      0.05980605
       0.05985849      0.05994061      0.06002270      0.06132271
       0.06192676      0.06204040      0.06205382      0.06747649
       0.06761235      0.06819550      0.06825055      0.06832618
       0.06850425      0.06854405      0.06864113      0.06875691
       0.06877769      0.06880154      0.06896562      0.06902442
       0.07010645      0.07020808      0.07036595      0.07066700
       0.07634284      0.07658145      0.07670950      0.07685223
       0.07983774      0.08040162      0.08047232      0.08068320
       0.08132141      0.08138255      0.08163717      0.08186920
       0.08194285      0.08199235      0.08239256      0.08254420
       0.08267266      0.08269690      0.08305287      0.08316084
       0.08328497      0.08334739      0.08342230      0.08432474
       0.09024000      0.09035469      0.09060428      0.09064584
       0.09086748      0.09117222      0.09146026      0.09161250
       0.09178227      0.09195556      0.09221611      0.09293730
       0.09652593      0.09658951      0.09675850      0.09697269
       0.09742597      0.09753749      0.09769986      0.09793636
       0.09993278      0.10050430      0.10114096      0.10127636
       0.10147448      0.10158791      0.10173970      0.10176232
       0.10241598      0.10243964      0.10264665      0.10267016
       0.10288114      0.10295563      0.10326708      0.10332326
       0.10342612      0.10346061      0.10356476      0.10372599
       0.10620147      0.10640428      0.10675689      0.10740266
       0.10743856      0.10800814      0.10843292      0.10847651
       0.10849855      0.10888702      0.10889494      0.10909269
       0.10911737      0.10922478      0.10982558      0.11024172
       0.11032771      0.11036778      0.11046067      0.11047776
       0.11055484      0.11069332      0.11080520      0.11114143
       0.11219738      0.11283393      0.11305375      0.11311897
       0.11320757      0.11339461      0.11341776      0.11386779
       0.11460061      0.11489701      0.11498617      0.11522588
       0.11683227      0.11691215      0.11715208      0.11729060
       0.11765826      0.11793653      0.11796814      0.11808520
       0.11852656      0.11903423      0.11907411      0.11942210
       0.11998579      0.12013038      0.12044207      0.12051549
       0.12084562      0.12119792      0.12164027      0.12188675
       0.12210984      0.12212993      0.12242064      0.12245446
       0.12291094      0.12305743      0.12325662      0.12329043
       0.12554631      0.12763757      0.12808272      0.12829018
       0.12832586      0.13779439      0.13840963      0.13913723
       0.13915778      0.13940772      0.13972877      0.13985908
       0.14137949      0.14226551      0.14361583      0.14520250
       0.14521447      0.14560725      0.14577459      0.14578442
       0.14643127      0.14681154      0.14693530      0.14729362
       0.14778026      0.14818741      0.14828846      0.14859446
       0.14939972      0.14944182      0.14975893      0.14978697
       0.14986316      0.15034074      0.15061693      0.15085444
       0.15162122      0.15201898      0.15215652      0.15224926
       0.15274931      0.15394464      0.15465159      0.15472936
       0.15501963      0.15504409      0.15511755      0.15522770
       0.15531850      0.15750000      0.15762145      0.15801741
       0.15860748      0.15887972      0.16046492      0.16048565
       0.16094817      0.16132443      0.16144031      0.16166136
       0.16191547      0.16196094      0.16228790      0.16267918
       0.16278039      0.16303317      0.16329615      0.16331982
       0.16355980      0.16378872      0.16458082      0.16486492
       0.16809665      0.16857448      0.16876294      0.16896564
       0.16929310      0.16930088      0.16935815      0.16942536
       0.16980635      0.16988213      0.16993315      0.17007542
       0.17023131      0.17037884      0.17048703      0.17085585
       0.17311649      0.17318040      0.17354260      0.17377363
       0.17396951      0.17406621      0.17439490      0.17475564
       0.17492132      0.17510795      0.17527983      0.17592878
       0.17641007      0.17659702      0.17697335      0.17697819
       0.17749812      0.17755705      0.17789762      0.17803237
       0.17846424      0.18090422      0.18294020      0.18303055
       0.18336640      0.18363652      0.18366570      0.18371439
       0.18411486      0.18418687      0.18432767      0.18433578
       0.18446874      0.18762659      0.18839185      0.18915658
       0.18967336      0.19016358      0.19087691
 Fermi Energy [eV] :    5.194025
  
  Lowest Eigenvalues of the unoccupied subspace spin            1
 -----------------------------------------------------
 OT| Eigensolver reached convergence in 65 iterations
       0.27162292
  
  Lowest Eigenvalues of the unoccupied subspace spin            2
 -----------------------------------------------------
 OT| Eigensolver reached convergence in 113 iterations
       0.24764187
  
 HOMO - LUMO gap [eV] :    2.209021
 HOMO - LUMO gap [eV] :    1.544653

 ENERGY| Total FORCE_EVAL ( QS ) energy [a.u.]:            -5781.187608973948954

 OPT| **************************************************************************
 OPT| Step number                                                             23
 OPT| Optimization method                                                   BFGS
 OPT| Total energy [hartree]                                    -5781.1876089739
 OPT| Effective energy change [hartree]                            -0.0000188407
 OPT| Predicted energy change [hartree]                            -0.0000198961
 OPT| Scaling factor                                                0.0027036967
 OPT| Step size                                                     0.0074650134
 OPT| Trust radius                                                  0.4724315332
 OPT| Decrease in energy                                                     YES
 OPT| Used time [s]                                                       28.129
 OPT|
 OPT| Maximum step size                                             0.0074650134
 OPT| Convergence limit for maximum step size                       0.0030000000
 OPT| Maximum step size is converged                                          NO
 OPT|
 OPT| RMS step size                                                 0.0009548999
 OPT| Convergence limit for RMS step size                           0.0015000000
 OPT| RMS step size is converged                                             YES
 OPT|
 OPT| Maximum gradient                                              0.0006312657
 OPT| Convergence limit for maximum gradient                        0.0004500000
 OPT| Maximum gradient is converged                                           NO
 OPT|
 OPT| RMS gradient                                                  0.0000921136
 OPT| Convergence limit for RMS gradient                            0.0003000000
 OPT| RMS gradient is converged                                              YES
 OPT| **************************************************************************
 OPT| Estimated peak process memory after this step [MiB]                    360

 --------------------------
 OPTIMIZATION STEP:     24
 --------------------------
