     192
 i =        6, E =     -5781.1711512800
Ti         0.0005997156        0.0026381192       -0.0000849584
Ti         1.8885314245        1.8885622140        4.8075443447
Ti         0.0011669686        1.8886543473        2.4052563969
Ti         1.8885392018        0.0011529604        7.2094623557
Ti         0.0018644363        3.7759136293        0.0028267707
Ti         1.8887352273       13.2376107954        4.8058393177
Ti        11.3498919123        1.8884099165        2.4071097776
Ti         5.6694332716        0.0010769741        7.2140944713
Ti         1.8885027822        3.7765191718        7.2070245174
Ti         0.0010474742       13.2374657762        2.4074682703
Ti         5.6696125424        1.8887590742        4.8034172020
Ti        11.3501522023       -0.0001075653       -0.0015932744
Ti         3.7776925655        0.0001092298       -0.0028849572
Ti        13.2376349580        1.8886951130        4.8092653929
Ti        13.2375283932        0.0010687980        7.2079047134
Ti         3.7764909825        1.8884467628        2.4082951950
Ti         1.8887371912        5.6696098661        4.8116736619
Ti         0.0017352794       11.3482145298        0.0014992547
Ti         0.0010521393        5.6694209816        2.4011209091
Ti         1.8885074902       11.3499202876        7.2081354608
Ti         0.0005730236        7.5700980712        0.0055154865
Ti         1.8885458584        9.4623037453        4.8087658798
Ti         7.5694076050        1.8887269976        2.4106080061
Ti         9.4625124913        0.0011277888        7.2109100483
Ti         1.8886214194        7.5693642307        7.2041851114
Ti         0.0011068232        9.4625898336        2.4039484244
Ti         9.4623238277        1.8885657872        4.8063215675
Ti         7.5685599220        0.0023151170       -0.0056063028
Ti         3.7763583484        3.7780068647       -0.0001433944
Ti        13.2374278114       13.2374558697        4.8075520635
Ti        11.3499845070        5.6696580247        2.4023559744
Ti         5.6695052095       11.3499299423        7.2124380394
Ti        13.2376084044        3.7766009592        7.2051102404
Ti         3.7766118362       13.2376578489        2.4097525427
Ti         5.6694660568        5.6694655991        4.8075336913
Ti        11.3489554042       11.3508057405       -0.0000154628
Ti        11.3499824182       13.2376786156        2.4084943046
Ti         5.6695136555        3.7765838290        7.2112526391
Ti         3.7764890061       11.3508589334       -0.0014162932
Ti        13.2374859625        5.6694580129        4.8133432962
Ti         5.6694665829       13.2374720693        4.8017352911
Ti        11.3491171696        3.7781391658        0.0012307518
Ti        13.2376228711       11.3499675275        7.2062701537
Ti         3.7765836209        5.6696332010        2.4035950083
Ti         3.7774172451        7.5679405944        0.0026591490
Ti        13.2376234852        9.4624351952        4.8104332211
Ti         7.5693352468        5.6694310486        2.4065516462
Ti         9.4624554259       11.3499177251        7.2096180784
Ti        13.2375478205        7.5693525122        7.2026610965
Ti         3.7764938727        9.4624025062        2.4069915239
Ti         9.4624104961        5.6696156988        4.8104719085
Ti         7.5697537179       11.3485380457       -0.0040751885
Ti        11.3499308205        9.4624318453        2.4056454668
Ti         5.6694637586        7.5693364344        7.2086567474
Ti         5.6696379191        9.4624129721        4.8046040693
Ti        11.3502625821        7.5680031352        0.0039778893
Ti         9.4624095740        3.7764881511        7.2083222606
Ti         7.5693906468       13.2374976427        2.4126235266
Ti         7.5696305995        3.7758148168       -0.0027665727
Ti         9.4624588368       13.2376176698        4.8046277174
Ti         7.5687080542        7.5701927880       -0.0000405005
Ti         9.4623111318        9.4623086316        4.8075371324
Ti         7.5694419465        9.4625344179        2.4093369484
Ti         9.4624502587        7.5694301226        7.2055327498
O         0.0007533985        0.0012385127        1.9891845687
O         1.8843548353        1.8876492741        6.8013041033
O         0.0016198644        1.8842673824        4.3966988275
O         1.8877927594        0.0005800430        9.2061046370
O         1.8842163173        0.0015945244        5.2182874561
O         0.0003655692        1.8879405689        0.4101608046
O         1.8877660128        1.8840024720        2.8137115845
O         0.0017226210        0.0000592383        7.6258467768
O         0.0004427229        3.7760084911        1.9870436933
O         1.8842364301       13.2369664440        6.8015434076
O        11.3510527655        1.8844201393        4.3966669150
O         5.6722395065        0.0007937226        9.2058609718
O         1.8844362597        3.7759411815        5.2205184943
O         0.0004456844       13.2369105971        0.4083144364
O         5.6720238200        1.8841521213        2.8128580854
O        11.3510747761        0.0008880610        7.6258504180
O         3.7756330661        0.0008972092        7.6279937654
O        13.2367949289        1.8838848712        2.8134603499
O        13.2368249372        0.0006809146        9.2055200928
O         3.7759621501        1.8845335697        4.3944131990
O         1.8844528520        5.6721663828        6.8021214052
O         0.0004254370       11.3514501337        1.9890608277
O         0.0004551178        5.6721999757        0.4081688855
O         1.8843047385       11.3510012492        5.2182364459
O         0.0008062197        7.5667267957        1.9904193768
O         1.8845081582        9.4627436193        6.7991460968
O         7.5669098957        1.8844609859        4.3975133573
O         9.4625497977        0.0008530202        9.2037307021
O         1.8844294101        7.5668881864        5.2175293057
O         0.0004770287        9.4624447980        0.4124614680
O         9.4628415775        1.8841943405        2.8159019416
O         7.5671122347        0.0001555346        7.6246554849
O         3.7689172064        0.0017822734        1.9898098572
O        13.2380004518        1.8877156122        6.8011805561
O         0.0016814211        5.6559407236        4.3964136317
O         1.8878119027       11.3548063551        9.2054828086
O        13.2378936493        0.0016323189        5.2183289335
O         3.7687620993        1.8878301150        0.4085087822
O         1.8876514963        5.6557393519        2.8139429734
O         0.0015039820       11.3546916829        7.6256013041
O        11.3544102627        1.8878172845        0.4085219193
O         5.6558441337        0.0016552737        5.2184667645
O         5.6561023773        1.8877939040        6.8010667207
O        11.3542048717        0.0018241214        1.9893999425
O         1.8878756081        3.7691006436        9.2054932955
O         0.0016637066       13.2379941893        4.3966399240
O         0.0014727321        3.7693643035        7.6251445663
O         1.8875439479       13.2376610924        2.8138238924
O         3.7696233780        3.7755276114        1.9878559925
O        13.2381089455       13.2368773982        6.8013007379
O        11.3509050253        5.6560487214        4.3963646059
O         5.6721696684       11.3544853509        9.2067152119
O        13.2377709097        3.7759439727        5.2208678467
O         3.7685438817       13.2368996441        0.4096601831
O         5.6722212767        5.6562964741        2.8128596081
O        11.3513274384       11.3538568189        7.6255527734
O        11.3544944151       13.2368133008        0.4098205991
O         5.6562728057        3.7760473587        5.2207346530
O         3.7758640177       11.3537156654        7.6276396509
O        13.2369799004        5.6556045866        2.8138231930
O         5.6559152110       13.2368698171        6.8012149860
O        11.3543442229        3.7754549406        1.9874200730
O        13.2367991325       11.3548738080        9.2064227136
O         3.7760667985        5.6563410105        4.3943255103
O         5.6565703967        5.6721320617        6.8021612449
O        11.3545082675       11.3508872485        1.9895441558
O        13.2368296907        3.7689079789        9.2064920107
O         3.7759884868       13.2378526878        4.3941888579
O        11.3542013312        5.6721702641        0.4094436210
O         5.6559787342       11.3508869442        5.2186818086
O         3.7759410116        3.7690018405        7.6271113609
O        13.2369984859       13.2377624930        2.8137233891
O        13.2378613361       11.3509654755        5.2185726779
O         3.7691344891        5.6721139081        0.4092432371
O         5.6722837377       13.2377117112        2.8130277585
O        11.3512450957        3.7687402452        7.6251332588
O         3.7693589338       11.3508430276        1.9898484204
O        13.2379986720        5.6721595736        6.8019678022
O        11.3509848299       13.2379283517        4.3964606617
O         5.6720621740        3.7693768154        9.2068736278
O         3.7693370322        7.5673025279        1.9908861988
O        13.2379670261        9.4627894613        6.7989006611
O         7.5669205137        5.6565626926        4.3975476944
O         9.4625630560       11.3545630723        9.2031190162
O        13.2378206171        7.5668679217        5.2175361965
O         3.7690243425        9.4626697490        0.4106066193
O         9.4625552057        5.6559943196        2.8159123818
O         7.5668654800       11.3544676301        7.6244448433
O        11.3542951855        9.4627079327        0.4108157699
O         5.6564639617        7.5668882346        5.2173502352
O         5.6563500745        9.4626809940        6.7990806090
O        11.3539874035        7.5672648051        1.9905121080
O         9.4625977245        3.7693060258        9.2033638191
O         7.5668843279       13.2379289527        4.3974044846
O         7.5669239762        3.7697704264        7.6240336491
O         9.4626348540       13.2376409830        2.8161118527
O         7.5830633319        0.0013480385        1.9896820471
O         9.4695672944        1.8876519697        6.8014740818
O         0.0016335108        9.4694825283        4.3968962557
O         1.8878201575        7.5830737618        9.2058412309
O         9.4693987976        0.0015991081        5.2181750781
O         7.5827641734        1.8878780673        0.4102787613
O         1.8877703749        9.4692958892        2.8135211172
O         0.0017542920        7.5824829853        7.6253756264
O         7.5822995794        3.7761435976        1.9876443437
O         9.4696433890       13.2369531350        6.8016851695
O        11.3509977116        9.4694621198        4.3967809590
O         5.6721475568        7.5826775677        9.2060280481
O         9.4691024942        3.7759686239        5.2202716715
O         7.5828676740       13.2369036868        0.4087007984
O         5.6719871908        9.4689241306        2.8126095910
O        11.3509370226        7.5830225084        7.6254022226
O         3.7758185111        7.5827461353        7.6273591633
O        13.2367752288        9.4692947871        2.8133256960
O        13.2368106717        7.5833123514        9.2052751829
O         3.7759814394        9.4692098734        4.3946658011
O         9.4692278179        5.6721538936        6.8023873130
O         7.5825577675       11.3512660639        1.9895446499
O         7.5822271932        5.6721916202        0.4080679626
O         9.4693492698       11.3509774301        5.2181453804
O         7.5824504088        7.5667210384        1.9909876192
O         9.4693231351        9.4627405714        6.7993509045
O         7.5669155863        9.4691029725        4.3977413861
O         9.4625696000        7.5827673925        9.2037598073
O         9.4690445951        7.5669010561        5.2173343398
O         7.5824003304        9.4624770851        0.4123514032
O         9.4628487083        9.4690407396        2.8156700432
O         7.5670880198        7.5818787638        7.6240922812
     192
 i =        7, E =     -5781.1714336465
Ti         0.0007635360        0.0041582642       -0.0001061170
Ti         1.8885294311        1.8887795692        4.8075257013
Ti         0.0013163104        1.8887704031        2.4071491895
Ti         1.8885824477        0.0012419227        7.2072002810
Ti         0.0025162508        3.7765603818        0.0027588200
Ti         1.8888573445       13.2373707608        4.8059166036
Ti        11.3499707843        1.8884905095        2.4091200762
Ti         5.6695181356        0.0012347841        7.2129021437
Ti         1.8885806303        3.7766498152        7.2054444666
Ti         0.0013033599       13.2373693384        2.4101398154
Ti         5.6696953354        1.8886666747        4.8032260576
Ti        11.3495373243       -0.0002625477       -0.0014563512
Ti         3.7790560367        0.0000642909       -0.0026947806
Ti        13.2375204570        1.8886965237        4.8091527459
Ti        13.2373535811        0.0013193948        7.2056967731
Ti         3.7765535306        1.8885329369        2.4100682221
Ti         1.8887401734        5.6695425541        4.8118193325
Ti         0.0026416457       11.3465865871        0.0013305044
Ti         0.0012193390        5.6693758283        2.4025763912
Ti         1.8886215822       11.3498907922        7.2064076399
Ti         0.0007990863        7.5696653009        0.0056977928
Ti         1.8885016834        9.4621670400        4.8090610142
Ti         7.5691676298        1.8887379012        2.4119393135
Ti         9.4623486853        0.0012636277        7.2093563362
Ti         1.8885707880        7.5691462055        7.2027084539
Ti         0.0013131585        9.4622203421        2.4052412571
Ti         9.4620074501        1.8886804934        4.8060224011
Ti         7.5677805300        0.0031337270       -0.0057066664
Ti         3.7769162304        3.7789944000       -0.0001526661
Ti        13.2370992465       13.2374129063        4.8075556761
Ti        11.3499695792        5.6696584703        2.4031994576
Ti         5.6694828310       11.3499426388        7.2113389735
Ti        13.2374464115        3.7766559668        7.2033207385
Ti         3.7768143509       13.2374804714        2.4113159181
Ti         5.6694472011        5.6695577869        4.8075235509
Ti        11.3478426954       11.3506358820        0.0000540814
Ti        11.3498623552       13.2374930295        2.4102318856
Ti         5.6694621507        3.7765964410        7.2102210032
Ti         3.7772779113       11.3506645687       -0.0013858504
Ti        13.2372585709        5.6696097564        4.8134125669
Ti         5.6695141838       13.2374431820        4.8016471725
Ti        11.3484318217        3.7794523539        0.0012411047
Ti        13.2373789445       11.3499167240        7.2041435145
Ti         3.7767032330        5.6695843477        2.4044418201
Ti         3.7781503367        7.5673716214        0.0029004746
Ti        13.2374833445        9.4620753351        4.8106477921
Ti         7.5692501126        5.6693650500        2.4074651281
Ti         9.4622572737       11.3499139473        7.2084834965
Ti        13.2374087804        7.5690876902        7.2012189910
Ti         3.7765795600        9.4623494601        2.4081528603
Ti         9.4622581498        5.6695408141        4.8103340972
Ti         7.5692636143       11.3477969206       -0.0043661330
Ti        11.3500001343        9.4623679365        2.4070427517
Ti         5.6694981148        7.5691900392        7.2078749912
Ti         5.6696624569        9.4621440468        4.8047228885
Ti        11.3499683856        7.5671764080        0.0042208145
Ti         9.4622013422        3.7766023173        7.2072885792
Ti         7.5692078696       13.2373808610        2.4142401362
Ti         7.5691772989        3.7762602385       -0.0029503398
Ti         9.4622653427       13.2373788826        4.8044379994
Ti         7.5682079540        7.5698292648        0.0000233916
Ti         9.4620794364        9.4622291227        4.8075394833
Ti         7.5691871084        9.4622341904        2.4101341896
Ti         9.4623221374        7.5692179064        7.2045868985
O         0.0006521865        0.0010199352        1.9882435566
O         1.8840185366        1.8871149511        6.8014610719
O         0.0016376279        1.8846086015        4.3956265971
O         1.8873721482        0.0002533472        9.2099270240
O         1.8845741937        0.0016284191        5.2193266397
O         0.0005753127        1.8878103549        0.4065367057
O         1.8872208924        1.8842466794        2.8135830402
O         0.0017157197        0.0009440365        7.6267417097
O         0.0009073237        3.7755853462        1.9866210035
O         1.8844498238       13.2369395766        6.8015836243
O        11.3513053990        1.8845521670        4.3956539507
O         5.6721377933        0.0005731409        9.2087367423
O         1.8846642954        3.7756668301        5.2215204892
O         0.0002941313       13.2369715895        0.4040825690
O         5.6718077343        1.8843334900        2.8128919849
O        11.3515154050        0.0004366313        7.6264402809
O         3.7751071292        0.0005244579        7.6285768492
O        13.2369003822        1.8840255473        2.8133999298
O        13.2367799669        0.0002817667        9.2094039473
O         3.7756651692        1.8846988860        4.3934473220
O         1.8847124445        5.6720252705        6.8020541085
O         0.0007907193       11.3519593034        1.9884270816
O         0.0003977982        5.6720232721        0.4052803734
O         1.8845198290       11.3513051119        5.2193706860
O         0.0006271215        7.5666038315        1.9905378934
O         1.8841847940        9.4630953369        6.7994146383
O         7.5669220527        1.8847752447        4.3965897300
O         9.4628153836        0.0006506965        9.2073080138
O         1.8847101225        7.5669213473        5.2184937274
O         0.0004172144        9.4625513094        0.4089355288
O         9.4631886347        1.8844336008        2.8156031670
O         7.5673780155        0.0008982871        7.6245990390
O         3.7698385780        0.0017607839        1.9895366611
O        13.2380641999        1.8872093704        6.8014693532
O         0.0016408306        5.6559795285        4.3954157687
O         1.8874898974       11.3549449202        9.2088126011
O        13.2376823570        0.0016208671        5.2193061510
O         3.7682713797        1.8872944895        0.4056123571
O         1.8873146600        5.6555718172        2.8138262400
O         0.0013626220       11.3534168974        7.6263761538
O        11.3547131936        1.8873512123        0.4051024222
O         5.6558255994        0.0016507888        5.2195794561
O         5.6561208587        1.8873262741        6.8011111446
O        11.3538243096        0.0017951495        1.9886594818
O         1.8875460428        3.7687836129        9.2082496870
O         0.0015970078       13.2376735069        4.3958283360
O         0.0014440666        3.7695290216        7.6255361029
O         1.8871514718       13.2376648826        2.8134565120
O         3.7698199823        3.7750454932        1.9876743511
O        13.2375541541       13.2369267447        6.8017083727
O        11.3511827702        5.6561701268        4.3954795250
O         5.6719808288       11.3544837721        9.2093166098
O        13.2377284105        3.7756728093        5.2216095369
O         3.7683979027       13.2368762017        0.4066032725
O         5.6720608761        5.6564626522        2.8129540304
O        11.3518003450       11.3539131274        7.6262200372
O        11.3548232242       13.2367976702        0.4064056210
O         5.6564384442        3.7757525277        5.2215208383
O         3.7754757109       11.3538716922        7.6281971743
O        13.2369095100        5.6555555421        2.8137874005
O         5.6553916415       13.2368748144        6.8012235112
O        11.3535776969        3.7748876210        1.9868642603
O        13.2369406790       11.3551113260        9.2100158364
O         3.7757684228        5.6565578666        4.3935505941
O         5.6563630734        5.6719593966        6.8020860671
O        11.3536498438       11.3512388485        1.9889933520
O        13.2368139539        3.7684366796        9.2093715881
O         3.7757085761       13.2377614046        4.3934295948
O        11.3543906734        5.6721409356        0.4067115455
O         5.6560446869       11.3511928623        5.2195572875
O         3.7755773408        3.7700435796        7.6272634456
O        13.2370239614       13.2377921218        2.8132938875
O        13.2377587871       11.3513029616        5.2193013093
O         3.7692061524        5.6721362274        0.4067851639
O         5.6721008573       13.2377469199        2.8128645568
O        11.3516408814        3.7699150018        7.6253315450
O         3.7697139208       11.3512212782        1.9896899215
O        13.2375578419        5.6719265267        6.8021449224
O        11.3512883531       13.2377890748        4.3956430713
O         5.6717937943        3.7691805491        9.2090482186
O         3.7698723045        7.5674920991        1.9913381781
O        13.2380311981        9.4631332580        6.7994303694
O         7.5669427593        5.6566905604        4.3966146719
O         9.4626229614       11.3543734680        9.2062489096
O        13.2376871542        7.5668952595        5.2184350138
O         3.7688762974        9.4631000387        0.4076958501
O         9.4629534889        5.6559995392        2.8157272570
O         7.5669070831       11.3534915947        7.6242837217
O        11.3546453276        9.4631489984        0.4075258038
O         5.6565834977        7.5669211789        5.2183278150
O         5.6565317894        9.4630197014        6.7992769487
O        11.3538889830        7.5675331671        1.9906420747
O         9.4628384771        3.7689628529        9.2061902144
O         7.5669265709       13.2376903388        4.3965390000
O         7.5669576180        3.7695930174        7.6236615747
O         9.4629850304       13.2376316993        2.8156573484
O         7.5824224988        0.0012672672        1.9894263445
O         9.4692324653        1.8872116104        6.8014577854
O         0.0016259269        9.4693478079        4.3956986525
O         1.8874556255        7.5832371802        9.2085876721
O         9.4692585055        0.0016210749        5.2193451844
O         7.5830453150        1.8876571046        0.4074550202
O         1.8872903750        9.4694831496        2.8135758382
O         0.0017152030        7.5823964281        7.6256932145
O         7.5821011153        3.7756972992        1.9876877227
O         9.4698985161       13.2369488227        6.8016150457
O        11.3512875250        9.4691580736        4.3956929949
O         5.6719456204        7.5825613452        9.2083233007
O         9.4688478856        3.7756616516        5.2213590640
O         7.5832885618       13.2369821025        0.4058671938
O         5.6717841244        9.4689166711        2.8128594836
O        11.3513257381        7.5822167511        7.6254076202
O         3.7753699928        7.5818976742        7.6273853263
O        13.2369200199        9.4694794721        2.8134411561
O        13.2367902162        7.5834705672        9.2081108398
O         3.7756482083        9.4688861417        4.3935641117
O         9.4692923103        5.6719828143        6.8021598655
O         7.5823971049       11.3515825070        1.9895163451
O         7.5821966576        5.6719972407        0.4058913086
O         9.4691194706       11.3512782032        5.2193182493
O         7.5820604029        7.5666443884        1.9914579066
O         9.4689235901        9.4630442687        6.7994912925
O         7.5669394186        9.4689441099        4.3967142395
O         9.4629054710        7.5829842817        9.2065338433
O         9.4688600744        7.5669494706        5.2183821761
O         7.5824873921        9.4627142085        0.4094669510
O         9.4631110351        9.4691404959        2.8154963703
O         7.5672771396        7.5820433058        7.6237061091
     192
 i =        8, E =     -5781.1715205173
Ti         0.0015258890        0.0045141425       -0.0000941553
Ti         1.8887157944        1.8890178578        4.8075297546
Ti         0.0016010206        1.8889529074        2.4085907011
Ti         1.8886660535        0.0015720837        7.2057798056
Ti         0.0027098411        3.7776349304        0.0023962043
Ti         1.8891340246       13.2370028318        4.8061092152
Ti        11.3497477571        1.8887071172        2.4100441430
Ti         5.6696015281        0.0015203457        7.2118445975
Ti         1.8886652538        3.7769844892        7.2048512782
Ti         0.0015663002       13.2372043727        2.4117226820
Ti         5.6697391359        1.8887897839        4.8032842792
Ti        11.3485997513        0.0005943531       -0.0011942298
Ti         3.7797342994        0.0008532054       -0.0023204014
Ti        13.2371897251        1.8889336144        4.8089417806
Ti        13.2370219001        0.0016362274        7.2041548105
Ti         3.7768535633        1.8887119335        2.4105844119
Ti         1.8888823208        5.6696314076        4.8117170752
Ti         0.0029914577       11.3459867808        0.0010790186
Ti         0.0014839092        5.6694439644        2.4035659094
Ti         1.8887483081       11.3496781896        7.2053239301
Ti         0.0014208137        7.5688482861        0.0052642944
Ti         1.8886916705        9.4617876354        4.8089146245
Ti         7.5690161511        1.8888686235        2.4123775385
Ti         9.4620666032        0.0015347001        7.2081338874
Ti         1.8886467160        7.5689559100        7.2024242788
Ti         0.0015295814        9.4618758325        2.4065353815
Ti         9.4616530873        1.8888801436        4.8061348400
Ti         7.5677608563        0.0029892837       -0.0052437560
Ti         3.7775296592        3.7790794150       -0.0001432428
Ti        13.2367265198       13.2370934245        4.8075415665
Ti        11.3498287861        5.6697289569        2.4039986361
Ti         5.6694990986       11.3497916286        7.2106289952
Ti        13.2371022569        3.7769745309        7.2028200283
Ti         3.7771553106       13.2371964570        2.4120458203
Ti         5.6695441566        5.6696502194        4.8075099378
Ti        11.3473342304       11.3496771918        0.0000882416
Ti        11.3495736709       13.2372275323        2.4113208955
Ti         5.6694902375        3.7768029100        7.2098023112
Ti         3.7781988597       11.3498151945       -0.0012397067
Ti        13.2369562576        5.6696987499        4.8131099376
Ti         5.6696457921       13.2371549308        4.8019420743
Ti        11.3482960274        3.7797095064        0.0011232642
Ti        13.2370613097       11.3496620812        7.2030680885
Ti         3.7768836865        5.6696826011        2.4050123477
Ti         3.7782902270        7.5676422395        0.0027574912
Ti        13.2371645981        9.4616377092        4.8103109189
Ti         7.5691518008        5.6694700535        2.4077254811
Ti         9.4619177772       11.3497355155        7.2075663914
Ti        13.2370938393        7.5689059810        7.2008837498
Ti         3.7768398719        9.4621883345        2.4087018626
Ti         9.4619565941        5.6696266410        4.8103835111
Ti         7.5688058860       11.3478336942       -0.0041412693
Ti        11.3498204007        9.4622167731        2.4079083111
Ti         5.6695883307        7.5690676355        7.2075266029
Ti         5.6697215195        9.4618355226        4.8046555321
Ti        11.3494893198        7.5672970974        0.0040011428
Ti         9.4619079521        3.7768392210        7.2066833271
Ti         7.5690987537       13.2372002294        2.4144041375
Ti         7.5688042734        3.7769315808       -0.0028214341
Ti         9.4618246341       13.2370368929        4.8047770003
Ti         7.5683009400        7.5692501565        0.0000270584
Ti         9.4617217062        9.4619028975        4.8075190660
Ti         7.5690784251        9.4619353487        2.4105965048
Ti         9.4620386945        7.5691054479        7.2042069865
O         0.0005636931        0.0011185643        1.9889092575
O         1.8841162618        1.8871958908        6.8008775706
O         0.0016004243        1.8843289191        4.3955856087
O         1.8873002054       -0.0001478137        9.2101247887
O         1.8843257412        0.0015680167        5.2195383206
O         0.0003163917        1.8876230122        0.4058423114
O         1.8871951456        1.8840016853        2.8142366362
O         0.0014868880        0.0007514897        7.6260314258
O         0.0007422869        3.7753107874        1.9870918279
O         1.8838071963       13.2369133070        6.8010766428
O        11.3512400477        1.8843910403        4.3952734647
O         5.6722158979        0.0003745044        9.2086122103
O         1.8845679740        3.7756246880        5.2220071625
O         0.0001704545       13.2368984283        0.4036951685
O         5.6718375913        1.8843736060        2.8138024434
O        11.3516321742        0.0005620309        7.6258088596
O         3.7749382695        0.0006259848        7.6281262009
O        13.2369421131        1.8839846795        2.8139282699
O        13.2368856900       -0.0000042707        9.2102864453
O         3.7755559032        1.8845540838        4.3928843621
O         1.8842791012        5.6719514632        6.8011284687
O         0.0007406238       11.3519627746        1.9890395728