     192
 i =        6, E =     -5781.1711512800
Ti         0.0002914715        0.0008679292       -0.0000004049
Ti         0.0000781718        0.0002076076       -0.0000239641
Ti         0.0002097258        0.0002692047        0.0021474915
Ti         0.0001976687        0.0002136223       -0.0023397875
Ti         0.0004508585        0.0005276419       -0.0000499287
Ti         0.0001577654       -0.0002543669        0.0001171121
Ti        -0.0000846794        0.0002488239        0.0020286758
Ti         0.0001581387        0.0002355162       -0.0015517908
Ti         0.0001786630        0.0002496171       -0.0016068378
Ti         0.0002680067       -0.0001548264        0.0026379319
Ti         0.0001176594        0.0000205041       -0.0001003030
Ti        -0.0004997331        0.0001567704        0.0001280881
Ti         0.0008830205        0.0002303389        0.0001084202
Ti        -0.0001594698        0.0000703043       -0.0001315480
Ti        -0.0002494165        0.0002865031       -0.0023769297
Ti         0.0002373372        0.0002148800        0.0016804266
Ti         0.0000960992        0.0000036623        0.0000785316
Ti         0.0005767882       -0.0009514196       -0.0001537502
Ti         0.0002287757        0.0001496633        0.0015986579
Ti         0.0002402761       -0.0001168916       -0.0019384205
Ti         0.0003055967       -0.0002849828       -0.0000268710
Ti         0.0000724437       -0.0001688570        0.0000741998
Ti        -0.0001658268        0.0001520446        0.0014092380
Ti        -0.0003476877        0.0002090790       -0.0018799092
Ti         0.0001227217       -0.0001715168       -0.0014312573
Ti         0.0002219398       -0.0004060620        0.0017976576
Ti        -0.0002629948        0.0001596195       -0.0000922520
Ti        -0.0004259856        0.0004636123        0.0000733143
Ti         0.0005185646        0.0006250876       -0.0000073213
Ti        -0.0002652122       -0.0001212037       -0.0000002898
Ti        -0.0001151532        0.0000905185        0.0012468996
Ti         0.0001107554       -0.0001012103       -0.0012827530
Ti        -0.0002281294        0.0002163714       -0.0016629221
Ti         0.0002573417       -0.0002363754        0.0016260589
Ti         0.0000511703        0.0001199162       -0.0000178765
Ti        -0.0007024017       -0.0003281015        0.0000587360
Ti        -0.0001888818       -0.0002344006        0.0019128858
Ti         0.0000772727        0.0001634651       -0.0010550848
Ti         0.0006249231       -0.0003425725       -0.0000126779
Ti        -0.0002141082        0.0001530253       -0.0000445721
Ti         0.0000871889       -0.0001038789        0.0000239131
Ti        -0.0004540267        0.0008112758        0.0000567001
Ti        -0.0002604399       -0.0001550132       -0.0021147942
Ti         0.0001854302        0.0000623544        0.0010868372
Ti         0.0005235304       -0.0003233129        0.0000278345
Ti        -0.0001855319       -0.0003222235       -0.0000511768
Ti        -0.0000877055        0.0001256537        0.0009543096
Ti        -0.0003193543       -0.0000925157       -0.0015533003
Ti        -0.0002032853       -0.0001644214       -0.0014739681
Ti         0.0002293995       -0.0002209246        0.0013416107
Ti        -0.0001743912        0.0000057686       -0.0000177606
Ti        -0.0002760970       -0.0004605041       -0.0000910027
Ti        -0.0000851868       -0.0002490586        0.0016460397
Ti         0.0001098484       -0.0001077586       -0.0009919732
Ti         0.0000898451       -0.0002635651       -0.0000165941
Ti        -0.0003330693       -0.0004819707        0.0000594891
Ti        -0.0002785029        0.0002249093       -0.0013229726
Ti        -0.0001331529       -0.0001470225        0.0015111510
Ti        -0.0002695129        0.0004433509        0.0000016351
Ti        -0.0002155959       -0.0002571954        0.0000280553
Ti        -0.0002568954       -0.0002783680        0.0000382053
Ti        -0.0002230094       -0.0001370435        0.0000034056
Ti        -0.0001509721       -0.0003027821        0.0011451160
Ti        -0.0002679762       -0.0001461517       -0.0011487501
O        -0.0000101379       -0.0000750673       -0.0002450896
O        -0.0000317866       -0.0004662617        0.0000086930
O         0.0000347411        0.0000578976       -0.0008726217
O        -0.0007718395       -0.0000369901        0.0015636429
O         0.0000614919        0.0000204799        0.0009720849
O         0.0000390906       -0.0007760185       -0.0015940648
O        -0.0004529022        0.0000516197        0.0000148213
O         0.0000230647        0.0001325034        0.0002337567
O         0.0000710286       -0.0002694834       -0.0000193964
O         0.0000418890       -0.0000056278       -0.0000688288
O         0.0002773168        0.0000277706       -0.0008573890
O        -0.0002352765       -0.0000274968        0.0012561797
O         0.0000424929       -0.0002033778        0.0007181893
O        -0.0000105947        0.0000871486       -0.0016530839
O        -0.0000985536        0.0000427823        0.0000898420
O         0.0003471354       -0.0000587411        0.0000632308
O        -0.0002766134       -0.0000480140        0.0000496964
O         0.0000159705        0.0000405749        0.0000696089
O         0.0001336612       -0.0000488265        0.0016225266
O        -0.0002014534        0.0000316379       -0.0007590751
O         0.0000460706       -0.0000807644       -0.0000861989
O         0.0000568773        0.0003443722       -0.0000875216
O         0.0000013259       -0.0001729301       -0.0012118443
O         0.0000414346        0.0003013324        0.0008290733
O        -0.0000223630        0.0000636221        0.0001416640
O        -0.0000314809        0.0003185403       -0.0000383908
O         0.0000799895        0.0000529806       -0.0006092955
O         0.0006013853       -0.0000247971        0.0014081605
O         0.0000493913        0.0000912193        0.0006700266
O         0.0000012780        0.0006995335       -0.0014676987
O         0.0002984779        0.0000488910        0.0000370917
O         0.0001502001        0.0001126530       -0.0001409043
O         0.0001354095       -0.0000189605       -0.0000546035
O        -0.0000010399       -0.0004714254        0.0000821251
O         0.0000253307        0.0000064701       -0.0007147379
O        -0.0007665799       -0.0000033304        0.0013918685
O        -0.0000345701       -0.0000111042        0.0009508908
O        -0.0000438425       -0.0006624946       -0.0011208976
O        -0.0003254164       -0.0000102272        0.0000184432
O        -0.0000265772       -0.0001844346        0.0002227398
O         0.0000263699       -0.0006881926       -0.0013469578
O         0.0000013192        0.0000199566        0.0007032178
O         0.0000053510       -0.0003759564       -0.0000276133
O        -0.0000582472       -0.0000299964       -0.0001954925
O        -0.0006062886       -0.0000278619        0.0011367997
O         0.0000027330       -0.0000515289       -0.0010266663
O         0.0000284368        0.0000276177        0.0000618236
O        -0.0004578468       -0.0000009264       -0.0000955543
O         0.0000323250       -0.0002157450        0.0000599868
O        -0.0000840962       -0.0000161261        0.0000608826
O         0.0002761897        0.0000201275       -0.0005279716
O        -0.0001934621       -0.0000185416        0.0010505098
O        -0.0000104798       -0.0001973630        0.0007201679
O         0.0000035967        0.0000841084       -0.0012192082
O        -0.0001196145        0.0000299328        0.0001102483
O         0.0003552802        0.0000054354        0.0000791689
O         0.0000294223        0.0001098585       -0.0014169605
O         0.0000250835       -0.0001628105        0.0005200244
O        -0.0002279059        0.0000193330        0.0000471752
O        -0.0000623023        0.0000019554        0.0000867482
O        -0.0000669933       -0.0000342283       -0.0000879830
O        -0.0001153551       -0.0002663522       -0.0000698198
O         0.0001871972        0.0000095631        0.0013899842
O        -0.0001685818        0.0000310028       -0.0004797231
O        -0.0000253018       -0.0000801336       -0.0000964274
O        -0.0001276647        0.0003010374       -0.0000805152
O         0.0000216884       -0.0000472079        0.0010888884
O        -0.0002182488       -0.0000185550       -0.0006642895
O         0.0000127771       -0.0001547024       -0.0011460887
O         0.0000138077        0.0002731659        0.0005844440
O        -0.0001996022        0.0001566731       -0.0000664356
O         0.0000275962       -0.0000004805       -0.0000664789
O        -0.0000192491        0.0003345947        0.0008325275
O         0.0000281274       -0.0001040910       -0.0009934363
O        -0.0001341227        0.0000020728       -0.0000003675
O         0.0003006953        0.0001754259       -0.0000518991
O         0.0000549335        0.0003101084        0.0000617589
O        -0.0000663854       -0.0001059483        0.0000099317
O         0.0003467988       -0.0000258271       -0.0007399141
O        -0.0001959570       -0.0000125179        0.0008527809
O         0.0000839858        0.0000964683        0.0002310894
O        -0.0000008284        0.0003529867        0.0000733504
O         0.0000605217        0.0000187774       -0.0005026335
O         0.0005219026       -0.0000448368        0.0012457630
O        -0.0000221975        0.0000874512        0.0006491250
O        -0.0000003171        0.0004989467       -0.0010438818
O         0.0002943631        0.0000109986        0.0000674272
O         0.0000871357       -0.0001454675       -0.0001361406
O         0.0000330117        0.0005865170       -0.0012369207
O         0.0000202155        0.0000742264        0.0005023675
O         0.0000255260        0.0002613052       -0.0000573675
O        -0.0000201025        0.0001271149        0.0001334743
O         0.0004934653       -0.0000328284        0.0010662983
O         0.0000706512       -0.0000385860       -0.0006807267
O         0.0000899843       -0.0000186938       -0.0002284857
O         0.0003463007       -0.0000028852       -0.0000508956
O        -0.0000839994        0.0000151029        0.0000123501
O        -0.0000641885       -0.0003982775       -0.0000226094
O         0.0000368194       -0.0000340856       -0.0007822519
O        -0.0005383065        0.0000160229        0.0010207080
O        -0.0000329407        0.0000440941        0.0008379818
O         0.0000388889       -0.0005393008       -0.0011164821
O        -0.0004345891        0.0000099388        0.0000376693
O         0.0000156745        0.0000012211       -0.0000175618
O        -0.0000203592       -0.0002503915        0.0001584649
O         0.0000131356       -0.0000209687       -0.0000789281
O         0.0002835108       -0.0000583088       -0.0007314903
O        -0.0001900453       -0.0000236290        0.0008746837
O        -0.0000466104       -0.0001916624        0.0006374457
O         0.0000619372        0.0000440766       -0.0010011131
O        -0.0000826901       -0.0000106270        0.0001219874
O         0.0003001868       -0.0001097343       -0.0001550163
O        -0.0002128862       -0.0001153300       -0.0001442667
O         0.0000296672        0.0000123386        0.0000949300
O         0.0000249350        0.0000164845        0.0010660395
O        -0.0001935079       -0.0000582933       -0.0006647205
O        -0.0000082981       -0.0000928439       -0.0001044480
O        -0.0000150035        0.0002413607        0.0001485039
O        -0.0000020943       -0.0001399597       -0.0007992360
O        -0.0000461418        0.0002788989        0.0007018746
O        -0.0000542372        0.0000730846        0.0002765185
O        -0.0000701831        0.0002718137       -0.0000512067
O         0.0000771817       -0.0000346153       -0.0005416836
O         0.0004533217        0.0000250523        0.0009526987
O        -0.0000366244        0.0000846780        0.0005853180
O         0.0000159928        0.0004762527       -0.0010395869
O         0.0002436445        0.0000014327        0.0000411940
O         0.0001164994        0.0000318425       -0.0002810746
     192
 i =        7, E =     -5781.1714336465
Ti         0.0006255715        0.0002189870        0.0000295223
Ti         0.0001539322        0.0001905251       -0.0000301052
Ti         0.0001909724        0.0001497156        0.0008547970
Ti         0.0001718453        0.0002251773       -0.0006547784
Ti         0.0000902879        0.0009424005       -0.0001570250
Ti         0.0002257333       -0.0002381176        0.0001133580
Ti        -0.0001235067        0.0001767962        0.0002212727
Ti         0.0001005812        0.0002001745       -0.0003521854
Ti         0.0001026409        0.0002125663       -0.0001605827
Ti         0.0002089774       -0.0001527585        0.0008235925
Ti         0.0000645759        0.0000885227       -0.0000288321
Ti        -0.0008310554        0.0008399633        0.0001558507
Ti         0.0003685357        0.0007576615        0.0001625532
Ti        -0.0002009330        0.0001797604       -0.0001504749
Ti        -0.0002007809        0.0002485490       -0.0009834593
Ti         0.0001928366        0.0001294799       -0.0000849351
Ti         0.0001159808        0.0000445327       -0.0000221973
Ti         0.0002211400       -0.0002680418       -0.0001463382
Ti         0.0001925263        0.0000722317        0.0000990556
Ti         0.0001675113       -0.0001206767       -0.0005263051
Ti         0.0005163629       -0.0006572433       -0.0002134981
Ti         0.0001432972       -0.0002415119        0.0000049538
Ti        -0.0000771567        0.0000240745        0.0000569896
Ti        -0.0002295341        0.0002025015       -0.0003547690
Ti         0.0000820223       -0.0000953496        0.0002368250
Ti         0.0001766861       -0.0002948881        0.0006247074
Ti        -0.0002263577        0.0001471055       -0.0000333896
Ti         0.0000090694       -0.0001214538        0.0002623671
Ti         0.0004921942       -0.0000742820        0.0000429428
Ti        -0.0002618904       -0.0001950939       -0.0000053189
Ti        -0.0000841414       -0.0000280501        0.0002103749
Ti         0.0000740678       -0.0000706601        0.0000508429
Ti        -0.0001877674        0.0002174842        0.0000088203
Ti         0.0002253053       -0.0002106312        0.0003190979
Ti         0.0000581637        0.0000530159       -0.0000122433
Ti        -0.0003495031       -0.0008405382        0.0000256329
Ti        -0.0001876954       -0.0002093772        0.0006759416
Ti         0.0000478459        0.0001433203        0.0002229188
Ti         0.0007023830       -0.0007523491        0.0000429369
Ti        -0.0002027968        0.0000693870       -0.0001370332
Ti         0.0000930474       -0.0001793516        0.0001186877
Ti        -0.0000913439        0.0000434925        0.0000195240
Ti        -0.0001963931       -0.0001475139       -0.0004884599
Ti         0.0001202845       -0.0000044141        0.0000395284
Ti         0.0000129187        0.0003198900       -0.0000752255
Ti        -0.0001931265       -0.0002987820       -0.0001228804
Ti        -0.0000397237        0.0000527739       -0.0004103436
Ti        -0.0002130353       -0.0000879595       -0.0002895981
Ti        -0.0001579759       -0.0000993177        0.0000178167
Ti         0.0001773802       -0.0001513691       -0.0002302923
Ti        -0.0001814915        0.0000398353       -0.0000213744
Ti        -0.0004134316        0.0001914622        0.0001029260
Ti        -0.0001031615       -0.0001852654        0.0000548414
Ti         0.0000451479       -0.0000424465        0.0001704773
Ti         0.0000604456       -0.0002075577       -0.0000028873
Ti        -0.0004552514        0.0002122257       -0.0000878119
Ti        -0.0001291031        0.0001628000       -0.0000490333
Ti        -0.0000761255       -0.0001429234       -0.0003338392
Ti        -0.0003230533        0.0006354851        0.0000753113
Ti        -0.0002645643       -0.0002233683        0.0001087011
Ti         0.0001040122       -0.0004741886        0.0000128082
Ti        -0.0002200993       -0.0002066840        0.0000004152
Ti        -0.0000713044       -0.0001785548       -0.0000359901
Ti        -0.0001555879       -0.0000587258        0.0002738066
O        -0.0000138372        0.0001297530        0.0003288824
O         0.0000293138       -0.0001863591       -0.0002960618
O        -0.0000083516       -0.0000486781       -0.0003906127
O        -0.0005688321       -0.0000609813        0.0001286147
O        -0.0000432901       -0.0000285734        0.0004228999
O        -0.0000440820       -0.0006967287       -0.0003233899
O        -0.0002805213       -0.0000370510        0.0003333715
O        -0.0001123642       -0.0000413850       -0.0003572097
O        -0.0000321579       -0.0002562683        0.0003842907
O        -0.0001083739       -0.0000456528       -0.0003486763
O         0.0001926790       -0.0000257065       -0.0002865455
O        -0.0001616800       -0.0000299147       -0.0000180771
O        -0.0000152315       -0.0001455763        0.0002738518
O        -0.0000146030        0.0000400470       -0.0001558519
O        -0.0000054532        0.0000128204        0.0004019058
O         0.0002544751        0.0000275787       -0.0004199319
O        -0.0001244993        0.0000224050       -0.0003754379
O         0.0000770979        0.0000008272        0.0003695428
O         0.0001899989       -0.0000409381        0.0003359983
O        -0.0001663056       -0.0000235255       -0.0002364826
O        -0.0000739852       -0.0001402894       -0.0003855321
O        -0.0000106994        0.0000997431        0.0003900959
O        -0.0000044984       -0.0001651489        0.0001730211
O        -0.0000151304        0.0002025386        0.0003149269
O        -0.0000024740        0.0002263239        0.0004194376
O         0.0000289778        0.0002025328       -0.0004069680
O         0.0000846009       -0.0000478437       -0.0001907081
O         0.0005047876       -0.0000473317       -0.0000362606
O        -0.0000401393        0.0001260631        0.0001605482
O        -0.0000070296        0.0005347934       -0.0001580952
O         0.0000629678       -0.0000254335        0.0004344478
O         0.0000207000       -0.0000384709       -0.0004381277
O        -0.0000204850       -0.0001321308        0.0004086883
O        -0.0000434289       -0.0003080434       -0.0002574027
O         0.0000140175        0.0000009016       -0.0001750627
O        -0.0005781798        0.0000410421        0.0001458914
O         0.0000478411       -0.0000347761        0.0004809609
O        -0.0000027892       -0.0004169135        0.0002016053
O        -0.0000784996        0.0000211157        0.0003140310
O         0.0000451143        0.0000801831       -0.0003408156
O         0.0000743211       -0.0005364377        0.0000455665
O         0.0000194546        0.0000074489        0.0002064254
O        -0.0000753505       -0.0002047404       -0.0002889939
O         0.0000355327       -0.0001573966        0.0003569163
O        -0.0003787771       -0.0000445231       -0.0000483693
O        -0.0000020273        0.0000457850       -0.0005178424
O         0.0000590933        0.0000015722       -0.0004294768
O        -0.0001977469        0.0000562543        0.0002714439
O        -0.0000024268        0.0000635948        0.0003875393
O         0.0000987691        0.0000070167       -0.0003136988
O         0.0001591227       -0.0000081952       -0.0001302488
O        -0.0001104158        0.0000115421       -0.0002263245
O         0.0000178583       -0.0001636709        0.0002790859
O        -0.0000479529        0.0000573795        0.0000016804
O        -0.0001655094       -0.0000050958        0.0003627457
O         0.0001105978        0.0000097130       -0.0004107509
O         0.0000743121        0.0000552304       -0.0002376730
O        -0.0000101461       -0.0000976772        0.0001070394
O        -0.0002294621        0.0000007666       -0.0003910693
O        -0.0001071302       -0.0000095618        0.0003634101
O         0.0000145910        0.0000070008       -0.0003473436
O         0.0000394336        0.0000503615        0.0003418266
O         0.0001394866        0.0000483731        0.0000599965
O        -0.0001088838       -0.0000156248       -0.0001393646
O         0.0000157973       -0.0000518588       -0.0003565580
O         0.0000354420        0.0003382801        0.0004035015
O         0.0000733063       -0.0000674893       -0.0001863531
O        -0.0001958654        0.0000114139       -0.0003059609
O         0.0000244077       -0.0001147525        0.0000650684
O        -0.0000071584        0.0001639190        0.0001107903
O        -0.0001745777       -0.0000264738       -0.0004349150
O        -0.0000554813        0.0000314266        0.0003124333
O         0.0000160320        0.0002249033        0.0003849337
O         0.0000054028       -0.0001196208        0.0001888093
O        -0.0001897572        0.0000186647        0.0003667399
O         0.0000521516       -0.0000299273       -0.0004760563
O        -0.0000213311        0.0003075208        0.0004693187
O         0.0000629434       -0.0000576892       -0.0003635689
O         0.0002317318        0.0000126744       -0.0003509618
O        -0.0000983151       -0.0000245281       -0.0003203420
O        -0.0000101560       -0.0000001289        0.0004063195
O        -0.0000441751        0.0001666051       -0.0003724956
O         0.0000759971       -0.0000179168       -0.0000268466
O         0.0004619729        0.0000354657       -0.0000011026
O         0.0000332025        0.0001250743        0.0002098483
O        -0.0000027456        0.0002745108        0.0003435176
O         0.0001911472        0.0000187003        0.0003877621
O         0.0001062773        0.0000687572       -0.0004031308
O         0.0000504530        0.0003818423        0.0001643225
O        -0.0000046824        0.0000991106        0.0000800701
O        -0.0000732041        0.0000515348       -0.0003856194
O         0.0000121937        0.0000308635        0.0003837315
O         0.0003038596       -0.0000179328       -0.0001618631
O         0.0000860841        0.0000312340       -0.0001621655
O         0.0000909308        0.0000194831       -0.0004078521
O         0.0003052488        0.0000506234        0.0003798697
O        -0.0000430276        0.0001917948        0.0004221847
O         0.0000688250       -0.0001511502       -0.0002790353
O         0.0000056275       -0.0000097863       -0.0002611414
O        -0.0003156894       -0.0000034585       -0.0002229839
O         0.0000038751        0.0000068710        0.0002492387
O         0.0000235181       -0.0003658538        0.0000403438
O        -0.0002895348        0.0000237153        0.0002689031
O        -0.0000665335       -0.0000114020       -0.0004488102
O        -0.0000156632       -0.0001679223        0.0004152520
O        -0.0000509802       -0.0000745947       -0.0003223068
O         0.0001701370        0.0000163848       -0.0001558673
O        -0.0000787981       -0.0000370514       -0.0002523441
O         0.0000239965       -0.0001145525        0.0001660835
O         0.0000442115       -0.0000397673        0.0002856045
O         0.0000102875        0.0000345163        0.0003412265
O         0.0001709684       -0.0000284307       -0.0004690165
O        -0.0000298480       -0.0000153359       -0.0004293719
O         0.0000572066        0.0000532544        0.0003265960
O         0.0000334945        0.0000079059       -0.0001032317
O        -0.0001402198        0.0000236505       -0.0001129068
O        -0.0000480682       -0.0001267188       -0.0003272191
O        -0.0000193153        0.0000219215        0.0004699126
O         0.0000053202       -0.0001229022        0.0003766327
O         0.0000233571        0.0001676184        0.0001727668
O        -0.0000346046        0.0001876498        0.0003931139
O         0.0000671309        0.0001664973       -0.0003836786
O         0.0000810543        0.0000062743       -0.0001021071
O         0.0002751583       -0.0000258878       -0.0003032272
O         0.0000214995        0.0001098945        0.0000669101
O         0.0000094002        0.0002319083        0.0001666177
O         0.0000690002        0.0000182209        0.0003746966
O         0.0000083601       -0.0000167727       -0.0004099176
     192
 i =        8, E =     -5781.1715205173
Ti         0.0010823952        0.0003179279        0.0000348589
Ti         0.0002372543        0.0002592355       -0.0000241532
Ti         0.0001704627        0.0002634289        0.0008303284
Ti         0.0003001454        0.0002265625       -0.0004830584
Ti        -0.0000344381        0.0015132752       -0.0001939243
Ti         0.0003204993       -0.0001970342        0.0001114668
Ti        -0.0001851874        0.0002333922       -0.0001274042
Ti         0.0001461464        0.0001434274        0.0000940728
Ti         0.0000540942        0.0002728310        0.0001720378
Ti         0.0002387277       -0.0001804913        0.0009712021
Ti         0.0000669194        0.0000832448       -0.0000268797
Ti        -0.0016070342        0.0012772824        0.0001771985
Ti         0.0006503772        0.0008406494        0.0001476448
Ti        -0.0002094975        0.0003187882       -0.0001464970
Ti        -0.0002006909        0.0002776942       -0.0013257027
Ti         0.0002455424        0.0000999289       -0.0004626936
Ti         0.0000846135        0.0000494305       -0.0000150572
Ti         0.0002402638       -0.0006544934       -0.0001215894
Ti         0.0001347347        0.0000941722       -0.0004660334
Ti         0.0001957710       -0.0001722745       -0.0004048886
Ti         0.0004318315       -0.0009341644       -0.0001965299
Ti         0.0001689062       -0.0003445851        0.0000465448
Ti        -0.0000645866       -0.0000737420       -0.0002745564
Ti        -0.0003794160        0.0001793251        0.0001247140
Ti         0.0000148809       -0.0001119735        0.0006371549
Ti         0.0001502292       -0.0004080179        0.0003071859
Ti        -0.0002835477        0.0001495486       -0.0000595656
Ti         0.0000176072       -0.0003798119        0.0002129709
Ti         0.0004102415       -0.0001588760        0.0000712318
Ti        -0.0002608269       -0.0002065378        0.0000081629
Ti        -0.0000162121       -0.0000101445       -0.0001507051
Ti         0.0001217752       -0.0000311081        0.0004773571
Ti        -0.0001371441        0.0003392336        0.0003838455
Ti         0.0003415936       -0.0001259019        0.0000643480
Ti         0.0000248525        0.0000111463       -0.0000074561
Ti        -0.0006213005       -0.0013595212       -0.0000288249
Ti        -0.0003068439       -0.0001590909        0.0008072540
Ti         0.0000151949        0.0001038842        0.0004737593
Ti         0.0010235556       -0.0008156153        0.0000539580
Ti        -0.0001357167        0.0000735665       -0.0001156103
Ti         0.0001502261       -0.0001378452        0.0001017962
Ti         0.0000282736        0.0000593702        0.0000156937
Ti        -0.0001892214       -0.0002680612       -0.0004662983
Ti         0.0000680188       -0.0000101823       -0.0002742136
Ti        -0.0001726380        0.0003642879       -0.0000562028
Ti        -0.0001808557       -0.0004171651       -0.0000583914
Ti        -0.0000150415        0.0000016131       -0.0006018939
Ti        -0.0002860912       -0.0000719890        0.0000774373
Ti        -0.0000888830       -0.0001397498        0.0004382475
Ti         0.0001851933       -0.0001866595       -0.0006259407
Ti        -0.0001622178        0.0000211685       -0.0000438604
Ti        -0.0004908988        0.0004577427        0.0001361423
Ti        -0.0001210992       -0.0003125455       -0.0004012162
Ti        -0.0000277959        0.0000030266        0.0004139678
Ti         0.0000484144       -0.0001894082        0.0000439841
Ti        -0.0002702037        0.0002809621       -0.0000483274
Ti        -0.0000806335        0.0001427378        0.0002869355
Ti        -0.0001219847       -0.0001111653       -0.0008497452
Ti        -0.0002551455        0.0004597519        0.0000475910
Ti        -0.0003991000       -0.0001725977        0.0000833017
Ti         0.0001783632       -0.0003143853       -0.0000017410
Ti        -0.0002211792       -0.0002261075        0.0000006495
Ti        -0.0000542462       -0.0000531470       -0.0003983588
Ti        -0.0000747252       -0.0000430235        0.0006031422
O        -0.0000004656        0.0000086577        0.0000758974
O        -0.0000099316       -0.0003259114       -0.0001614561
O        -0.0000165658        0.0000141902       -0.0003237537
O        -0.0008194798       -0.0000269734        0.0001514045
O         0.0000168777       -0.0000305254        0.0002955010
O        -0.0000375506       -0.0009368143       -0.0002953843
O        -0.0003663743        0.0000183202        0.0001661474
O        -0.0001941474        0.0000429619       -0.0000931656
O         0.0000301883       -0.0004460194        0.0003320276
O         0.0000208444       -0.0000416219       -0.0002274064
O         0.0002861471        0.0000077223       -0.0000569619
O        -0.0002707317        0.0000081088       -0.0001341627
O         0.0000109806       -0.0001984382       -0.0000016122
O        -0.0000826489        0.0001755545       -0.0002999586
O        -0.0000464402        0.0000363695        0.0002010198
O         0.0005429770       -0.0000253132       -0.0002406561
O        -0.0002512333       -0.0000048356       -0.0003237182
O         0.0000960052       -0.0000055746        0.0002643120
O         0.0002674811       -0.0001082460        0.0004318970
O        -0.0001913926        0.0000105141        0.0000533275
O         0.0000352018       -0.0001357298       -0.0001802595
O         0.0000123401        0.0003043518        0.0002265489