     192
 i =        1, E =     -5773.9970469064
Ti        -0.0628470570        0.0971949901        0.0641049827
Ti         1.8647762550        1.9219954432        4.8967510544
Ti         0.0457926684        2.0282916700        2.5276725615
Ti         1.8618585921       -0.0435784934        7.1753486158
Ti        -0.0298641203        3.8299539641       -0.0516623169
Ti         1.9476358994       13.1895540266        4.8325775054
Ti        11.2891602882        1.9801224730        2.4496513955
Ti         5.6057836365       -0.0889998742        7.2221302341
Ti         1.9029911512        3.8195008075        7.2339689772
Ti         0.0291125140       13.3429811133        2.4744976776
Ti         5.6771742610        1.8294483268        4.8267066223
Ti        11.3016439450        0.1137874983       -0.0422463091
Ti         3.6792193085        0.0943842271        0.0509042824
Ti        13.1224938266        1.7713484316        4.7067521352
Ti        13.2627347195       -0.0458054780        7.1538883404
Ti         3.7525295922        1.8046177603        2.5177053299
Ti         1.9698608751        5.6382413073        4.8522264369
Ti         0.0074625199       11.5813790077       -0.0013079483
Ti        -0.0192580599        5.7250203989        2.4874772257
Ti         1.9051045970       11.3215182244        7.3576269268
Ti         0.0713449046        7.4877072360        0.0490549395
Ti         2.0407607415        9.5179059364        4.9034138821
Ti         7.5002843230        1.9532070579        2.3543939504
Ti         9.4643744649       -0.1287895583        7.2275411461
Ti         1.9466218908        7.5756816744        7.1606577487
Ti         0.1327080369        9.5818641207        2.4880562844
Ti         9.3293161658        1.8082127533        4.7647400330
Ti         7.4660872225       -0.0621193310       -0.0776055267
Ti         3.7313776443        3.7820702666       -0.0050237935
Ti        13.2326844051       13.1282466706        4.7439960146
Ti        11.3774814119        5.7273072208        2.3760476471
Ti         5.6729427333       11.3280640870        7.1531477631
Ti        13.1716669786        3.6788486574        7.2429626673
Ti         3.7740761757       13.1643269059        2.4446048664
Ti         5.6755178802        5.7212441357        4.8449944996
Ti        11.2249222236       11.3878807592        0.1038213106
Ti        11.2864862084       13.3383991640        2.3546817555
Ti         5.6515666567        3.7263874877        7.1312220904
Ti         3.8821696638       11.4213064577        0.0420533355
Ti        13.2834690560        5.5848294875        4.8963336033
Ti         5.7941223249       13.2062991053        4.8087835758
Ti        11.2726739628        3.7915655256       -0.0769675187
Ti        13.0931250437       11.3814010859        7.2634378561
Ti         3.7949673418        5.6167407389        2.3912541119
Ti         3.7996367374        7.5550522018        0.0476649136
Ti        13.2980062680        9.4204142864        4.8377511036
Ti         7.5266940680        5.6745238378        2.3903616065
Ti         9.4232626315       11.1478918034        7.1765679055
Ti        13.3029248529        7.5406542183        7.2312778349
Ti         3.8888036554        9.4496374337        2.3373383616
Ti         9.5176077323        5.5579678690        4.7074087960
Ti         7.5314140454       11.3460318709        0.0648875868
Ti        11.4025828506        9.4514865291        2.4135186840
Ti         5.6577620726        7.6042280030        7.1977794430
Ti         5.7750290458        9.4251995280        4.7456104114
Ti        11.3199579197        7.5721933865        0.0092212498
Ti         9.4251211206        3.6458544656        7.1682384016
Ti         7.5401308288       13.3048409283        2.4098262170
Ti         7.4661148766        3.8004852419       -0.0664861678
Ti         9.5077924197       13.2434701555        4.7796105966
Ti         7.5978740160        7.5376062070       -0.0575865656
Ti         9.5239871538        9.3934005355        4.7598559908
Ti         7.6409309569        9.4213122635        2.3244726887
Ti         9.5130746624        7.3599960058        7.1437381215
O         0.0525062035        0.0797782101        2.0877084957
O         1.6793928822        1.9381208437        6.7339482662
O        -0.0719189216        1.9990088064        4.4077747970
O         1.7998308485        0.1447090889        9.2347373624
O         1.8128832371       -0.0192042753        5.2661048930
O        -0.1453617282        2.0069170636        0.4938117673
O         1.8653754733        2.1684004275        2.8374800966
O        -0.0742443784       -0.0488341203        7.6254106011
O        -0.0309984725        3.9104509816        2.0827924828
O         1.9918262427       13.2746671249        6.8184456808
O        11.2894470436        1.8295047113        4.3108068136
O         5.6351579044       -0.0187338293        9.2594623015
O         2.1048150107        3.7571871157        5.1826418648
O         0.0474994672       13.3770430167        0.4431245335
O         5.6327718434        1.8614564400        2.8409385825
O        11.2805132588        0.0645085266        7.5701842039
O         3.7102035965        0.1100989928        7.6963449431
O        13.1890764652        1.8765767169        2.8375126402
O        13.1740044647       -0.0980253932        9.2127219635
O         3.7094102040        1.6600059299        4.3707460101
O         1.9081690095        5.6214446924        6.7380086167
O         0.0542132124       11.4488138533        1.9094043582
O         0.0821966123        5.7143045837        0.4731813241
O         1.9104656150       11.3152154476        5.2413087292
O         0.1225572288        7.7287032271        1.9433615218
O         2.1464779898        9.4620903740        6.7762395178
O         7.4559517072        1.8686238087        4.3596797946
O         9.4173324892        0.0318467357        9.1964667944
O         1.8294949730        7.5682374163        5.2782000961
O         0.1073153295        9.5676036083        0.2704401751
O         9.3709952885        2.0363795970        2.8425393829
O         7.4800091170       -0.1581129294        7.7048508153
O         3.7475863135        0.0602170176        2.0352020410
O        13.2213868032        1.8480637256        6.7792765191
O         0.0018437699        5.6036478053        4.4843464843
O         1.9281772264       11.3576276306        9.2584664694
O        13.1767871538       -0.0281510079        5.1354270879
O         3.7064626170        1.9523894697        0.4366368750
O         1.9478896001        5.7939817316        2.9168097647
O         0.1040299170       11.4242741416        7.5751784913
O        11.3451423885        2.0067037073        0.2886295442
O         5.8142040956       -0.0908700506        5.2785554474
O         5.5733408815        1.8287744827        6.7795858901
O        11.2720322014        0.1401174171        1.8926071172
O         1.9096446917        3.8317255028        9.1987562050
O        -0.0239483539       13.1606824187        4.4528408517
O         0.0227314705        3.7945382118        7.6818847099
O         1.8881555232       13.2378846974        2.8702127282
O         3.9555544800        3.8422931189        2.0674567913
O        13.1116535651       13.2699786250        6.7297901798
O        11.3679654042        5.6610561862        4.3810017477
O         5.6882725994       11.4642392168        9.2233698824
O        13.1788939239        3.8052052314        5.2266037262
O         3.6440849701       13.3080656794        0.5129058929
O         5.7446783738        5.9022441652        2.7450699493
O        11.3024058895       11.3366241809        7.6557255544
O        11.2535913704       13.2672196409        0.4139156874
O         5.5082610708        3.7159475724        5.1873443533
O         3.7898238243       11.3708139057        7.6872534192
O        13.2808703990        5.9198500472        2.8725584217
O         5.5255203542       13.2015757656        6.7767786250
O        11.5311383986        3.8321324821        1.9174565412
O        13.2415842397       11.4115051065        9.2052102855
O         3.8623489143        5.7133037877        4.4001770634
O         5.7627453427        5.6323034642        6.7312434827
O        11.1298755057       11.4647063324        1.9938718013
O        13.2120346574        3.9026615961        9.1351464632
O         3.7942930761       13.2138791295        4.3857095138
O        11.3559224679        5.7370124717        0.4153772383
O         5.7944865959       11.3041246490        5.2409119408
O         3.7404555262        3.7249280576        7.6546215755
O        13.2138029086       13.2193082498        2.7217518889
O        13.0605577350       11.4126095637        5.1584980242
O         3.7140446304        5.6735192239        0.4317102653
O         5.6964723824       13.1728681752        2.8703644982
O        11.2936110968        3.5642513601        7.5608286710
O         3.9579196153       11.4099377725        1.9613144900
O        13.2162360776        5.6403111674        6.8894304879
O        11.2836922699       13.3398991418        4.3191175913
O         5.6664172937        3.8101944736        9.1388353060
O         3.7828730403        7.6434422327        1.9242970630
O        13.3078647928        9.5871082206        6.7489552932
O         7.5692060698        5.5308756454        4.3185790830
O         9.4255996151       11.3205446561        9.2246935064
O        13.2699306485        7.5882662850        5.4227966525
O         3.8071016417        9.5215301102        0.3643781027
O         9.5604258423        5.5832397929        2.7953230792
O         7.5174520856       11.3382714855        7.5746717779
O        11.3418424189        9.4914832127        0.4137746215
O         5.7349471304        7.5694868369        5.1648633551
O         5.5617819786        9.4179245958        6.7584435434
O        11.2320068182        7.6066381345        2.0177665706
O         9.4394184952        3.9436290191        9.1450413071
O         7.5883829300       13.0524217819        4.4509208328
O         7.4992187899        3.6511813717        7.5501606398
O         9.4306345970       13.4557046535        2.8567474682
O         7.4457440402       -0.0426275887        2.0308541578
O         9.2229800182        1.8097585007        6.7198774830
O         0.0778317414        9.3752643377        4.4391619457
O         1.9272838576        7.5834588698        9.1978921890
O         9.3180842636       -0.0316818250        5.2008878959
O         7.6247745944        1.9061716958        0.4451356545
O         1.9653792796        9.6882762481        2.7741446808
O         0.0410463430        7.5692256741        7.6216751483
O         7.5180145091        3.7938812779        1.9441685269
O         9.5057472126       13.2136159531        6.7358643663
O        11.4381620066        9.2322900808        4.3744650180
O         5.6675357191        7.6883182074        9.1193139054
O         9.4772880359        3.6870026321        5.1891546824
O         7.5671796478       13.2202428807        0.4251773801
O         5.7432839091        9.3972012689        2.7194363693
O        11.3001799537        7.6401407645        7.6031052996
O         3.7892399795        7.3715056732        7.6090515098
O        13.3242532310        9.6105672641        2.8118052227
O        13.2669793468        7.6748979074        9.3193283609
O         3.8499064287        9.4213422459        4.2911536095
O         9.6026838679        5.5303792668        6.7501309925
O         7.6407826057       11.3269486723        1.9502894361
O         7.3517001332        5.6978793676        0.3762051004
O         9.5591977273       11.2262775253        5.2041520827
O         7.8445083841        7.5930217038        1.9201573578
O         9.4539971776        9.4231758759        6.8052200361
O         7.5541126393        9.3759708993        4.3219980584
O         9.4701331005        7.4449772709        9.2127305876
O         9.3653741963        7.4808676388        5.2486430622
O         7.5191194923        9.4709821014        0.3682069053
O         9.5720536868        9.5046529155        2.8741768558
O         7.5953372236        7.5412668775        7.5919049594
     192
 i =        2, E =     -5774.0937659251
Ti        -0.0592123381        0.1161920249        0.0313639876
Ti         1.8568130875        1.9275944352        4.8788429221
Ti         0.0357498634        2.0088947016        2.4897406716
Ti         1.8436838622       -0.0629414410        7.1939451082
Ti        -0.0529625634        3.8294187036       -0.0305382988
Ti         1.9480718778       13.2065027224        4.8411509723
Ti        11.3016663664        1.9576486110        2.4300092076
Ti         5.6018209502       -0.0752810575        7.2144647254
Ti         1.9045834596        3.8045457400        7.2471634601
Ti         0.0087812668       13.3326570934        2.4587202181
Ti         5.6855362149        1.8514978967        4.8106211175
Ti        11.2885673526        0.0922498299       -0.0309900360
Ti         3.6614403839        0.0807655637        0.0348458445
Ti        13.1622262772        1.7951526861        4.7392470486
Ti        13.2627666164       -0.0401584844        7.1785175738
Ti         3.7652471363        1.8386282838        2.5019035098
Ti         1.9618873931        5.6555760134        4.8334211184
Ti         0.0047184461       11.5751821212       -0.0127797443
Ti        -0.0128061004        5.7073733167        2.4784152357
Ti         1.8855147997       11.3460527926        7.3254038134
Ti         0.0333392965        7.4800554539        0.0246258171
Ti         2.0238314542        9.5175928967        4.8633105355
Ti         7.4998340624        1.9540905533        2.3359347262
Ti         9.4797517529       -0.1062591993        7.2243041261
Ti         1.9373836618        7.5724615404        7.1769651216
Ti         0.1024701468        9.5527434354        2.4998646548
Ti         9.3529953301        1.8233398046        4.7915457394
Ti         7.4670299382       -0.0354066381       -0.0594346879
Ti         3.7403372236        3.7722097803        0.0056207161
Ti        13.2285302018       13.1216905866        4.7813415324
Ti        11.3594149065        5.7160967959        2.3858424210
Ti         5.6734918246       11.3206528723        7.1773302707
Ti        13.1646375811        3.7044178343        7.2301062841
Ti         3.7817126724       13.1962017355        2.4454904845
Ti         5.6998839821        5.6971631270        4.8306282919
Ti        11.2243083380       11.3863387655        0.0792522421
Ti        11.3052207161       13.3151321999        2.3464984897
Ti         5.6627110924        3.7231974953        7.1441792254
Ti         3.8636336501       11.3971265760        0.0192753495
Ti        13.2726241170        5.5950258407        4.8685613104
Ti         5.7704462076       13.2019135956        4.8064956701
Ti        11.2669601784        3.7995637126       -0.0435877244
Ti        13.1238559500       11.3555469601        7.2585616018
Ti         3.8066595322        5.6363785475        2.3974184593
Ti         3.7879377997        7.5806029162        0.0281218163
Ti        13.2782645395        9.4294190254        4.8440153829
Ti         7.4981649459        5.6814353510        2.4114632559
Ti         9.4135670893       11.1819927241        7.1695515262
Ti        13.2950215614        7.5276788307        7.1966017370
Ti         3.8612976934        9.4373870202        2.3535027592
Ti         9.5200137271        5.5710862035        4.7300575609
Ti         7.5636707946       11.3545640056        0.0377471614
Ti        11.3912052838        9.4550712655        2.4340684928
Ti         5.6650806687        7.5812934973        7.2224849036
Ti         5.7689418927        9.4177966329        4.7611592066
Ti        11.3285808073        7.5858132159        0.0006817516
Ti         9.4356465492        3.6652720521        7.1745874615
Ti         7.5410616902       13.3198478412        2.3901043505
Ti         7.4748167258        3.7997015978       -0.0566794545
Ti         9.4955556811       13.2377055293        4.7908666995
Ti         7.6092850483        7.5379063604       -0.0621003074
Ti         9.5228673967        9.4215256670        4.7806175894
Ti         7.6134745281        9.4164360600        2.3321150507
Ti         9.5161446696        7.3916302196        7.1553393094
O         0.0543802442        0.0637080903        2.0192039472
O         1.7683182506        1.9178731877        6.7587426715
O        -0.0230148464        1.9717651016        4.3872162743
O         1.7967515163        0.1177981900        9.2044313864
O         1.8201085000       -0.0097129015        5.2748023420
O        -0.1054830705        2.0074785122        0.4580092790
O         1.8631070839        2.0694025532        2.8210034932
O        -0.0541498893       -0.0505383656        7.6464324156
O        -0.0597723831        3.8890719032        2.0666904760
O         1.9817185294       13.2484846676        6.8283482859
O        11.2963265227        1.8437286922        4.3319396539
O         5.6057699241        0.0206535479        9.2395739525
O         2.0453882391        3.7797484064        5.2036082119
O         0.0425769914       13.3768454768        0.4438386294
O         5.6333827519        1.9310834580        2.8282315585
O        11.3071731991        0.0711853062        7.5822833016
O         3.7022496428        0.0689579443        7.6742264044
O        13.1872824852        1.9007711787        2.8493038808
O        13.1844268164       -0.0073839783        9.1833271701
O         3.7237723702        1.7013164498        4.3862599895
O         1.8727321626        5.6352186118        6.7647561688
O         0.0276114437       11.4225820313        1.9014839861
O         0.0344716348        5.7061775813        0.4638785959
O         1.8899087517       11.3334943224        5.2517751337
O         0.1264251045        7.7013712944        1.9269676271
O         2.0509352216        9.4670304191        6.7866085652
O         7.5000083053        1.9124484418        4.3744887292
O         9.4168416973        0.0053822154        9.1643275058
O         1.9026480564        7.5638774430        5.2767088662
O         0.0782935828        9.5423274642        0.2655192420
O         9.3812695025        1.9690573980        2.8278456414
O         7.4772382748       -0.1261090074        7.6817355268
O         3.7360914019        0.0704100834        2.0259185600
O        13.2718796224        1.8654210290        6.7822970146
O         0.0089759927        5.5937062202        4.4566915902
O         1.8908666242       11.3584389238        9.2349193622
O        13.2262700821       -0.0017843493        5.1781367516
O         3.7137691362        1.9342061475        0.4510879469
O         1.9431049669        5.7387782622        2.8765635952
O         0.0570156309       11.4343740573        7.6132704186
O        11.3195988472        1.9841831543        0.3195237149
O         5.7794943694       -0.0592523102        5.2586601309
O         5.6316502983        1.8230221093        6.7694354863
O        11.3014371615        0.1286879410        1.9134781855
O         1.8879825092        3.8184664647        9.2290897418
O        -0.0143571143       13.2111557394        4.4028903401
O         0.0040461086        3.7692745191        7.6845918128
O         1.8787243696       13.2358976909        2.8700963449
O         3.8948781289        3.8540525517        2.0503265495
O        13.1578388195       13.2373902038        6.7796910030
O        11.3678823877        5.6600058973        4.3960549689
O         5.6941580819       11.4443733295        9.2215056220
O        13.1568600508        3.8088943771        5.2289012494
O         3.6577174041       13.2960435927        0.4854785615
O         5.7143018530        5.8653178419        2.7686124910
O        11.3219700361       11.3336742879        7.6214821804
O        11.2787312682       13.2718323531        0.3933072083
O         5.5905433158        3.7202577349        5.1968003317
O         3.7939749368       11.3751090150        7.6683056939
O        13.2889327577        5.8923132135        2.8704566317
O         5.5272643534       13.2036029441        6.8008089294
O        11.4571662347        3.8074220233        1.9578473458
O        13.2594678656       11.4340934007        9.1891475935
O         3.8571050626        5.7199242412        4.3980473606
O         5.7444569287        5.6314509430        6.7254555593
O        11.2339533362       11.4129869043        2.0007810072
O        13.2104938473        3.8842010939        9.1417586700
O         3.7787375107       13.2247378973        4.4089944707
O        11.4001823294        5.7448159295        0.4138012069
O         5.7402509324       11.2886721399        5.2563459379
O         3.7556432907        3.7287320355        7.6673472408
O        13.2306734560       13.2753387322        2.7884639361
O        13.1029091536       11.3514909600        5.1680045485
O         3.7422056161        5.6817690694        0.4357222280
O         5.6942937138       13.2325987137        2.8599170813
O        11.3041271455        3.5860131129        7.5859279370
O         3.9205588528       11.4035998921        1.9778694089
O        13.2262993450        5.6543327226        6.8258998741
O        11.3024983571       13.2904976001        4.3340807881
O         5.6594768227        3.7832446711        9.1545404589
O         3.7551743920        7.6161863865        1.9325013190
O        13.3036172919        9.5471124688        6.7783306331
O         7.5874641499        5.5277399888        4.3238762253
O         9.4334853475       11.3062592569        9.1675059430
O        13.3078568478        7.5775988560        5.3477655218
O         3.7977494378        9.5118387451        0.3918749243
O         9.5078932269        5.5832890139        2.8062860408
O         7.5207116824       11.3174916920        7.5706399379
O        11.3595574286        9.4848655601        0.4772134104
O         5.7439351537        7.5486526570        5.1870888600
O         5.6191968595        9.4036285069        6.7651679614
O        11.3056081672        7.6176005381        1.9939182802
O         9.4196104066        3.9176557196        9.1426402098
O         7.5724959046       13.0972078335        4.3997636253
O         7.5192562074        3.6989138443        7.5820375476
O         9.4261715228       13.3565760256        2.8293033346
O         7.4850056591       -0.0029037567        2.0241413590
O         9.2905481251        1.8260216919        6.7520888115
O         0.0507295297        9.4485281789        4.4186937342
O         1.9034144344        7.6615816732        9.2081145636
O         9.3687282181       -0.0211550472        5.2068824624
O         7.5434247587        1.9146372568        0.4186018192
O         1.9336035628        9.6232183003        2.7748893897
O         0.0304508121        7.5805123352        7.6219144430
O         7.4834042305        3.8169345732        1.9420131402
O         9.4845350014       13.2227038293        6.7565639000
O        11.4106417657        9.2584271656        4.3938313276
O         5.6697827043        7.6306045929        9.1481815391
O         9.4542875199        3.7125576710        5.2021116845
O         7.5815077044       13.2515691506        0.4348658153
O         5.7297865946        9.4175257728        2.7624511521
O        11.3355395258        7.6139306266        7.6452260612
O         3.7821545354        7.4125753744        7.5989846736
O        13.2906188537        9.5978649785        2.8203922719
O        13.2679203267        7.6500058108        9.2128952822
O         3.8435520534        9.3957057027        4.3148609659
O         9.5360628581        5.5651714366        6.7597646512
O         7.6586882866       11.3270152506        1.9442448150
O         7.4328099651        5.6918149312        0.4135766663
O         9.5505003265       11.2522014659        5.2122674843
O         7.7788937021        7.5610548854        1.9364618478
O         9.4710526797        9.4151744712        6.8303433835
O         7.5777213418        9.3880704705        4.3371638741
O         9.4700645357        7.5048278859        9.1780284410
O         9.4162427469        7.4925630064        5.2397842266
O         7.5332617585        9.4564705102        0.3757731158
O         9.5274843661        9.4986031164        2.8703208512
O         7.5899975276        7.5138032074        7.6033615291
     192
 i =        3, E =     -5774.1332062209
Ti        -0.0469800095        0.1182349672        0.0168780526
Ti         1.8631372095        1.9184939797        4.8629383815
Ti         0.0331792269        2.0027990080        2.4711808545
Ti         1.8479137456       -0.0532300352        7.2019827916
Ti        -0.0621310136        3.8142432826       -0.0295025780
Ti         1.9453091347       13.2237170866        4.8280919482
Ti        11.3255453612        1.9426829435        2.4328079873
Ti         5.6039301934       -0.0487337919        7.2096231688
Ti         1.9003078231        3.7931394071        7.2452344966
Ti         0.0056404095       13.3339765690        2.4483442587
Ti         5.6897283492        1.8605418104        4.8096335635
Ti        11.2859008616        0.0809003366       -0.0256345593
Ti         3.6723213571        0.0804034134        0.0266681581
Ti        13.1807721083        1.8144960038        4.7719221390
Ti        13.2468578479       -0.0263503824        7.2011251848
Ti         3.7732368521        1.8464991345        2.4809393123
Ti         1.9573018255        5.6651903853        4.8259078837
Ti        -0.0052543498       11.5664313818       -0.0284673183
Ti        -0.0060392238        5.6970733170        2.4708412861
Ti         1.8699676179       11.3543678300        7.2882915244
Ti         0.0149561344        7.4860322032        0.0025427386
Ti         2.0030803673        9.5182724103        4.8467585128
Ti         7.5146834533        1.9472835024        2.3342527732
Ti         9.4679017390       -0.0880340206        7.2156541364
Ti         1.9253012369        7.5686849901        7.1763347220
Ti         0.0821688467        9.5348818538        2.4996008215
Ti         9.3678795982        1.8387416518        4.7876534311
Ti         7.4673644335       -0.0126210567       -0.0551800565
Ti         3.7456022019        3.7804326569        0.0144749301
Ti        13.2314103028       13.1457083532        4.7847177566
Ti        11.3619994281        5.7090922186        2.3939200601
Ti         5.6705154597       11.3183519415        7.1924756600
Ti        13.1774816561        3.7223384239        7.2187266796
Ti         3.7813065673       13.2211468836        2.4235845259
Ti         5.7009217149        5.6784181918        4.8403842337
Ti        11.2438208942       11.3896160838        0.0497898621
Ti        11.3237353281       13.2936824759        2.3716766915
Ti         5.6651925340        3.7309894877        7.1631350955
Ti         3.8416474964       11.3897299840        0.0186805811
Ti        13.2702332744        5.5983717334        4.8467917770
Ti         5.7426815262       13.2025079748        4.8013273979
Ti        11.2713042516        3.7966530135       -0.0199578112
Ti        13.1662274799       11.3318998519        7.2689528317
Ti         3.7974096077        5.6366025466        2.3951277026
Ti         3.7742133830        7.5946585119        0.0164060765
Ti        13.2771151024        9.4420641489        4.8411946155
Ti         7.5029256286        5.6898148410        2.4031302980
Ti         9.4211644880       11.2100331904        7.1654268813
Ti        13.2939437797        7.5221064117        7.1843998093
Ti         3.8393450607        9.4354360963        2.3779925617
Ti         9.5011391218        5.5845272393        4.7474026959
Ti         7.5708961679       11.3472360392        0.0227421607
Ti        11.3990304277        9.4571776121        2.4258063703
Ti         5.6721197159        7.5576745352        7.2360175961
Ti         5.7578135056        9.4124332421        4.7787613405
Ti        11.3501274115        7.5911596939       -0.0115318214
Ti         9.4326787068        3.6904626786        7.1851064080
Ti         7.5488308448       13.3268149733        2.3835429066
Ti         7.4816472666        3.8035705052       -0.0431698043
Ti         9.4873317804       13.2296820349        4.7882323236
Ti         7.6110912647        7.5404636775       -0.0567149011
Ti         9.5148557581        9.4280003028        4.7758850463
Ti         7.6055820020        9.4347283853        2.3563020835
Ti         9.5099633240        7.4341634524        7.1680519210
O         0.0417062961        0.0744181210        1.9875882381
O         1.8174550704        1.9130353365        6.7687540878
O         0.0045601037        1.9346927175        4.3878095991
O         1.8162757602        0.1179532044        9.1999659460
O         1.8117947573       -0.0127950884        5.2700299002
O        -0.0879765546        1.9929052200        0.4504115866
O         1.8673196071        2.0206454091        2.8079967631
O        -0.0408139001       -0.0597992326        7.6445849618
O        -0.0849350179        3.8741555965        2.0430562487
O         1.9493061665       13.2329491439        6.8231748650
O        11.2934782505        1.8543595912        4.3661701353
O         5.5921067794        0.0156990814        9.2182325757
O         1.9978937075        3.7857520553        5.2186867536
O         0.0278357517       13.3623483195        0.4379395414
O         5.6460520545        1.9645728823        2.8240949757
O        11.3039256236        0.0538791027        7.5934845434
O         3.7108905029        0.0300869078        7.6691183371
O        13.2017600826        1.8973087029        2.8625004252
O        13.1938670884        0.0570944063        9.1706038782
O         3.7490553629        1.7396367228        4.3941586756
O         1.8621157453        5.6489474805        6.7899106481
O        -0.0074265212       11.4061299125        1.9024808437