     192
 i =        1, E =     -5773.9970469064
Ti        -0.0043488292        0.0138256071       -0.0061823885
Ti        -0.0077324982       -0.0032141702       -0.0166535495
Ti        -0.0070026735        0.0020721830       -0.0146125679
Ti        -0.0071218388        0.0093926440        0.0131001783
Ti        -0.0049217684       -0.0071062484        0.0141443426
Ti         0.0018798648        0.0042709990        0.0041500945
Ti         0.0049199936        0.0039295390       -0.0264023134
Ti         0.0003863149        0.0076954852        0.0057201161
Ti        -0.0007770406       -0.0142586794       -0.0053878216
Ti        -0.0129230513       -0.0023132517       -0.0000512275
Ti        -0.0139801125        0.0041969351        0.0002119568
Ti        -0.0039429604       -0.0076199972       -0.0017283524
Ti        -0.0000259240       -0.0055267558       -0.0060125734
Ti         0.0148956361        0.0060088582        0.0232185947
Ti        -0.0147062965        0.0082685245        0.0091704341
Ti         0.0029886548        0.0224526357       -0.0127147311
Ti        -0.0020107361        0.0060718999       -0.0198209883
Ti        -0.0018553313        0.0021476111       -0.0116821955
Ti         0.0074690362        0.0023771424        0.0054996513
Ti         0.0082744644        0.0065799823       -0.0174622754
Ti        -0.0093562157        0.0072266314       -0.0109329051
Ti        -0.0043472999       -0.0119453650       -0.0309587780
Ti        -0.0024033118       -0.0108085923       -0.0080314692
Ti        -0.0038790684        0.0089527109       -0.0004257633
Ti        -0.0016625355       -0.0048599568        0.0105405527
Ti        -0.0004406262       -0.0067981641        0.0145543512
Ti        -0.0000833643        0.0022725753        0.0096881667
Ti         0.0145050976        0.0075686565        0.0288392593
Ti         0.0149601751        0.0007357835        0.0058446142
Ti        -0.0110598252        0.0205922462       -0.0081321264
Ti         0.0058574959       -0.0073616129        0.0022292233
Ti        -0.0005890983       -0.0036055689        0.0122250050
Ti         0.0047039727        0.0030167428       -0.0131893403
Ti         0.0056657454        0.0183766406        0.0004393737
Ti         0.0162934090       -0.0103220643       -0.0098464960
Ti         0.0009130532        0.0033977918       -0.0115890951
Ti         0.0010295617        0.0004969526       -0.0019516234
Ti        -0.0025050522        0.0004344210        0.0001512649
Ti        -0.0064596958       -0.0029365699       -0.0159796761
Ti        -0.0111517055        0.0093516783        0.0020701948
Ti        -0.0094991238       -0.0068196883       -0.0049804352
Ti         0.0040742874        0.0129181636        0.0110309703
Ti         0.0084478806        0.0020295102        0.0002107711
Ti         0.0047531445        0.0068142580        0.0068460744
Ti         0.0013451448        0.0103338632       -0.0189540871
Ti        -0.0005993505        0.0074736010       -0.0014549841
Ti         0.0020199526        0.0058652232       -0.0029157826
Ti        -0.0065057204        0.0272913366        0.0038283672
Ti        -0.0074075120        0.0002522930        0.0202515994
Ti        -0.0117509550        0.0047737929        0.0006050915
Ti        -0.0033198226        0.0013177198        0.0113901928
Ti         0.0091141416       -0.0001444711       -0.0145666918
Ti         0.0096352970        0.0051638783       -0.0064186035
Ti         0.0067951443       -0.0080876235        0.0063777019
Ti        -0.0114878933        0.0038791394        0.0017388402
Ti         0.0024897134        0.0093111250       -0.0072542785
Ti        -0.0044980924       -0.0014166050       -0.0028250063
Ti         0.0105244966       -0.0078778578       -0.0039479835
Ti         0.0097976229       -0.0026170140        0.0047108952
Ti        -0.0066052510       -0.0082436759        0.0105874538
Ti         0.0011423812        0.0033950868       -0.0037675526
Ti         0.0004304330        0.0008633464        0.0077652526
Ti        -0.0017967758        0.0042116632        0.0041250615
Ti        -0.0107521275        0.0076017116        0.0059852468
O         0.0016054827        0.0020378755       -0.0087987482
O         0.0092560202       -0.0026805092        0.0153219071
O         0.0168383969       -0.0041577414        0.0034129634
O         0.0032767964       -0.0035812622       -0.0057079243
O         0.0007489605        0.0008257740       -0.0058202285
O         0.0063427418       -0.0019105417       -0.0037621149
O         0.0035133644       -0.0133504844        0.0004897034
O         0.0177027243       -0.0007047699        0.0054037822
O        -0.0025763190       -0.0041970649       -0.0063892977
O        -0.0008085032       -0.0180047142        0.0015655631
O        -0.0134327458       -0.0007790641        0.0153828003
O        -0.0197030239        0.0046091184       -0.0040772435
O        -0.0068020680        0.0114243222        0.0075077876
O         0.0016436478       -0.0062450159        0.0027453581
O         0.0011620854        0.0058312575       -0.0018160812
O         0.0088677472        0.0007413580        0.0037395363
O         0.0014202737       -0.0044591344       -0.0046714961
O        -0.0015657987        0.0027647919       -0.0062724154
O         0.0078927765        0.0105702715       -0.0079353589
O         0.0064655602        0.0022555114        0.0155998157
O        -0.0040218209        0.0099318258        0.0169940765
O        -0.0002315033       -0.0085471024        0.0031601245
O        -0.0062997074       -0.0088371479       -0.0010457002
O        -0.0010128575        0.0154599009        0.0047482302
O        -0.0003786288       -0.0058383917       -0.0000249608
O        -0.0076769419       -0.0011567628        0.0171720911
O         0.0184444479        0.0031096996        0.0034403467
O         0.0020053685       -0.0024506747       -0.0060830574
O         0.0086522108       -0.0008535689       -0.0049422171
O        -0.0031683502       -0.0047919596       -0.0022065852
O         0.0033389656       -0.0070615432       -0.0079182623
O        -0.0026018847        0.0031689125       -0.0215644948
O        -0.0000724918       -0.0123638088       -0.0019860730
O         0.0048555328        0.0034807891       -0.0050643439
O         0.0117767196       -0.0006785227       -0.0095758668
O        -0.0133759307        0.0006907921        0.0029253210
O         0.0045580610        0.0101103768        0.0063945810
O         0.0005928795       -0.0048941011        0.0077578860
O        -0.0080854908       -0.0061362193       -0.0070613495
O        -0.0236365235        0.0029490795        0.0126025156
O        -0.0031071692       -0.0149797466        0.0082717788
O        -0.0044059756        0.0150165260       -0.0042929171
O         0.0051953583       -0.0031562019       -0.0005467255
O         0.0035289717       -0.0012229971        0.0045398836
O        -0.0139494388       -0.0003930269        0.0056018254
O         0.0086531326        0.0049869645       -0.0123876233
O        -0.0072120372       -0.0012490632       -0.0061294561
O         0.0027925735       -0.0015220462        0.0017150949
O        -0.0068290613       -0.0081280054       -0.0077904154
O         0.0044629873       -0.0179640685        0.0036369817
O         0.0060158392       -0.0011067891        0.0022701335
O         0.0015011360       -0.0011938872       -0.0048359374
O        -0.0035300010       -0.0130699014        0.0010662925
O         0.0014184582        0.0014634438       -0.0086059603
O        -0.0161780399       -0.0042505203        0.0039670823
O         0.0020135648       -0.0001861286        0.0001540536
O         0.0030772548        0.0128423452       -0.0050554343
O         0.0078298399       -0.0030193703        0.0039136828
O         0.0122656021       -0.0001502086       -0.0005945983
O         0.0032344729       -0.0049213161        0.0022820674
O        -0.0022513280       -0.0007575293        0.0055427690
O        -0.0095398561       -0.0071784077        0.0057745122
O         0.0071484560        0.0007035196       -0.0016697306
O        -0.0088063440       -0.0000944894       -0.0006561962
O        -0.0037041732        0.0062624236        0.0029894916
O         0.0129495653       -0.0202644172        0.0076842962
O         0.0007393414       -0.0005078554        0.0040958408
O        -0.0059399734        0.0006775817        0.0091866432
O         0.0048973538       -0.0039577000       -0.0009602690
O        -0.0091972548       -0.0048591934       -0.0022128785
O         0.0091262699        0.0001383408       -0.0005581101
O         0.0053849358        0.0065441722        0.0143571573
O         0.0024158395       -0.0331293402        0.0042531199
O         0.0030728054        0.0003043186        0.0030465823
O        -0.0031455476        0.0068513107       -0.0012017301
O         0.0068638766        0.0029944221        0.0036406432
O        -0.0022171913       -0.0136327301        0.0093110848
O         0.0008141753        0.0044276706       -0.0063856822
O         0.0218275221       -0.0048702257        0.0043725094
O        -0.0129438523       -0.0019702549        0.0024158675
O        -0.0019424774       -0.0118901365        0.0073555338
O        -0.0009287419       -0.0077409898        0.0091484199
O         0.0037349841       -0.0000525292        0.0024635005
O        -0.0068421666       -0.0015807849       -0.0108233460
O         0.0022320971       -0.0044072271       -0.0322652206
O         0.0009513143       -0.0027502566        0.0051188136
O        -0.0201869759       -0.0006579220       -0.0006132719
O         0.0077014114       -0.0014483851        0.0042790798
O         0.0041713500       -0.0026907005        0.0128250873
O        -0.0017599773       -0.0011448455        0.0068282440
O         0.0040801118        0.0009749014       -0.0041136073
O         0.0081063933        0.0020515596       -0.0081307465
O        -0.0123268348       -0.0031769879       -0.0039068779
O         0.0034603854        0.0048552139       -0.0097188268
O         0.0077063292        0.0040741273        0.0075096960
O        -0.0102217836       -0.0094248458       -0.0085199441
O         0.0039133832        0.0189390989       -0.0050826380
O         0.0080861007        0.0030398933        0.0074509176
O        -0.0003502944        0.0097547341       -0.0125659000
O        -0.0007162857        0.0085522003        0.0001064732
O         0.0059227029        0.0000399753       -0.0013551828
O        -0.0093612512       -0.0038514839       -0.0063638835
O        -0.0036948097       -0.0068810612        0.0037571342
O         0.0011021926        0.0006763642        0.0038982989
O        -0.0022369419        0.0099615554       -0.0021044100
O        -0.0031938105       -0.0062486642        0.0047779094
O        -0.0062814858        0.0038600087        0.0036079624
O        -0.0037199075       -0.0068851380        0.0073565957
O        -0.0021337105        0.0058015633        0.0015914921
O         0.0010646632        0.0126198217        0.0032218557
O         0.0032285942        0.0045812271        0.0059137637
O         0.0235014812       -0.0032376958        0.0112039902
O        -0.0022701419        0.0059171995       -0.0024618973
O        -0.0119219856       -0.0015136279        0.0009767639
O         0.0068554607       -0.0050502938       -0.0131740645
O        -0.0022823006       -0.0011773545        0.0081232427
O        -0.0068023820        0.0088837843       -0.0000370012
O         0.0019922249        0.0004383147        0.0055318977
O         0.0083893391       -0.0024245385        0.0031513558
O        -0.0035773568        0.0071911840        0.0012941591
O        -0.0054456895       -0.0109547068        0.0028132701
O         0.0012203039       -0.0245482385       -0.0023712076
O         0.0234297227        0.0024229217        0.0009835917
O        -0.0072357686        0.0053975304       -0.0071773936
O         0.0044059808       -0.0032228407       -0.0051868510
O         0.0022927545       -0.0115374791        0.0030713195
O        -0.0217033399        0.0010116659       -0.0060395863
O        -0.0018247426       -0.0049947155        0.0047773217
     192
 i =        2, E =     -5774.0937659251
Ti        -0.0021966668        0.0045502197        0.0027418721
Ti         0.0013835706       -0.0045520063       -0.0054169844
Ti        -0.0033165591       -0.0024103832       -0.0116164125
Ti         0.0014427832        0.0174733238        0.0045886133
Ti         0.0026309882       -0.0051407465        0.0022821893
Ti        -0.0043885950        0.0064664972       -0.0048998357
Ti        -0.0003319307        0.0044725549       -0.0061233362
Ti        -0.0001841446        0.0079630416        0.0064299780
Ti        -0.0058195666       -0.0089066176       -0.0030972670
Ti        -0.0010647249       -0.0015629898       -0.0032718125
Ti        -0.0086911303       -0.0000439284        0.0026517325
Ti         0.0029627589        0.0011303252       -0.0046776484
Ti         0.0049731481       -0.0044081444       -0.0040275990
Ti         0.0035640178        0.0073617898        0.0154828540
Ti        -0.0105595454        0.0087608935        0.0031766174
Ti        -0.0033107086        0.0144873984       -0.0097878939
Ti        -0.0001592025        0.0032722343       -0.0101573085
Ti        -0.0020721675        0.0054107346       -0.0057398869
Ti         0.0093144451        0.0050806453        0.0036058877
Ti         0.0012177371       -0.0030556043       -0.0121144192
Ti        -0.0032303292        0.0079891428       -0.0111874270
Ti        -0.0053704935       -0.0096824602       -0.0107381409
Ti         0.0041909863       -0.0015735172        0.0038966011
Ti        -0.0080392056        0.0089343369       -0.0006795298
Ti        -0.0060362866       -0.0022132847        0.0063102916
Ti        -0.0076576803       -0.0018034885        0.0037081785
Ti         0.0020490151        0.0058818809       -0.0033597327
Ti         0.0005454885        0.0097135782        0.0072901753
Ti         0.0062120391        0.0059031362        0.0062796557
Ti        -0.0011835418        0.0174666013       -0.0055686962
Ti         0.0017281296       -0.0003197683        0.0028085895
Ti        -0.0061772040       -0.0021376037        0.0050873166
Ti         0.0125910068       -0.0001348714       -0.0093350587
Ti        -0.0051120534        0.0109902128       -0.0053989553
Ti         0.0070643399       -0.0042796654       -0.0030151005
Ti         0.0157187457       -0.0065437289       -0.0102539473
Ti         0.0020496362       -0.0005475160        0.0077870038
Ti        -0.0020501887        0.0011062899        0.0033658377
Ti        -0.0080605700        0.0056313192       -0.0057526241
Ti        -0.0030667227        0.0093891828       -0.0019652786
Ti        -0.0103577264        0.0005763983        0.0026990168
Ti         0.0047951984        0.0071568764        0.0054411061
Ti         0.0114301640       -0.0008034901        0.0043127760
Ti        -0.0037106066        0.0049346199        0.0022157889
Ti        -0.0019898098       -0.0040338824       -0.0106247651
Ti         0.0004939932        0.0009312122       -0.0032272465
Ti         0.0124813371        0.0030057104       -0.0083847773
Ti         0.0015974041        0.0131436389       -0.0001615271
Ti        -0.0020453072        0.0060829829        0.0172968705
Ti        -0.0079583368        0.0045575768        0.0027226543
Ti        -0.0082170253        0.0043792012        0.0065230967
Ti        -0.0030290075       -0.0053297124       -0.0012986526
Ti         0.0083546362        0.0026932975       -0.0054989278
Ti         0.0055888875       -0.0091182983       -0.0025295844
Ti        -0.0039996461       -0.0029817250        0.0039842661
Ti         0.0072686286        0.0081241996       -0.0048807692
Ti        -0.0076179016        0.0017496206       -0.0017206919
Ti         0.0088116701       -0.0109069882        0.0003708747
Ti         0.0041140429        0.0056732844        0.0044998956
Ti        -0.0037483980       -0.0039095494        0.0041672967
Ti        -0.0024470780       -0.0021884163        0.0020861934
Ti        -0.0039684621       -0.0102221949        0.0003472301
Ti         0.0044769859        0.0027722549        0.0057756861
Ti        -0.0087091559        0.0074408880        0.0013008673
O        -0.0016359322        0.0116168503       -0.0011186597
O         0.0020285319        0.0008666045        0.0059637509
O         0.0023474183       -0.0043080697        0.0063746988
O         0.0078189490        0.0017660532        0.0012292709
O        -0.0016445905       -0.0038743249       -0.0057634126
O         0.0010086328       -0.0062478733        0.0042875238
O         0.0026501941       -0.0017253919       -0.0006456510
O         0.0072190445       -0.0016881534       -0.0009444013
O        -0.0015877459       -0.0046884336       -0.0037497892
O        -0.0034341090       -0.0136568613       -0.0012916075
O        -0.0070608340       -0.0004189378        0.0110531011
O        -0.0047321621       -0.0030566303       -0.0031804300
O        -0.0033126591        0.0014271324        0.0049888572
O        -0.0014392228       -0.0084744907       -0.0024168217
O         0.0067735596       -0.0002075969       -0.0003322806
O         0.0012548439       -0.0029064915        0.0032119495
O         0.0033946602       -0.0034919067        0.0004125268
O         0.0048226210       -0.0018606768       -0.0049138457
O        -0.0008302454        0.0044277994       -0.0008943094
O         0.0070739750        0.0020937925        0.0088295144
O         0.0006593601        0.0059409402        0.0079923220
O        -0.0022243325       -0.0057595209        0.0061185817
O        -0.0017892680       -0.0049871385        0.0000786991
O         0.0008431336        0.0078803879        0.0022450776
O        -0.0048106377       -0.0020067849        0.0065802732
O        -0.0040954557        0.0022474828        0.0070813853
O         0.0065992189       -0.0033992227       -0.0004957526
O         0.0023357085        0.0007191805       -0.0000880758
O         0.0002530218        0.0041852960       -0.0086130003
O        -0.0069636832       -0.0006503697       -0.0005981165
O         0.0026039037       -0.0030380970       -0.0075417176
O         0.0010166573       -0.0000247575       -0.0082580810
O         0.0017980224       -0.0163207606       -0.0016247987
O        -0.0007102238        0.0038522773       -0.0033685564
O         0.0095751728        0.0005598318       -0.0047868807
O         0.0010993085       -0.0009100520        0.0008672460
O         0.0014983772       -0.0033035934        0.0040272471
O        -0.0007889260        0.0016797996        0.0050969242
O        -0.0089653961       -0.0015304876       -0.0006433296
O        -0.0089538023       -0.0000365276        0.0010679677
O        -0.0045388563       -0.0086380095        0.0084020163
O        -0.0027714381       -0.0024757176       -0.0034866919
O         0.0012890396        0.0058517424        0.0002081847
O        -0.0012263928       -0.0146206198        0.0018374843
O        -0.0047074109        0.0027284217       -0.0029680938
O        -0.0004328784       -0.0011383305        0.0024160656
O        -0.0027703747        0.0003036905       -0.0066942545
O         0.0112876607       -0.0007261770        0.0011896331
O        -0.0037794824       -0.0156630317       -0.0048225454
O         0.0043162439       -0.0049539851       -0.0083747250
O         0.0027349097       -0.0007535810       -0.0045249002
O         0.0033329793       -0.0039175434       -0.0025175734
O         0.0020204101       -0.0163878012       -0.0004432869
O         0.0028835772        0.0002678292       -0.0049884516
O        -0.0113902997       -0.0043172664        0.0048738187
O        -0.0052561188       -0.0001442047        0.0055933231
O         0.0019468434        0.0043478726        0.0045239332
O        -0.0010433926       -0.0003292155        0.0028333424
O         0.0056441139       -0.0050053159        0.0065693528
O        -0.0069319790       -0.0033044939       -0.0006770600
O         0.0032131377       -0.0030579279       -0.0024462092
O        -0.0058912219        0.0070150040       -0.0054398577
O        -0.0109719413       -0.0062604171        0.0035662940
O        -0.0076660101       -0.0042811604        0.0010556153
O        -0.0046761766        0.0035055236        0.0078815404
O         0.0026367784        0.0026642931       -0.0006857198
O        -0.0088778367        0.0024894855        0.0058302065
O         0.0028087646        0.0002892827        0.0001542055
O        -0.0008260275       -0.0100015033        0.0030044637
O        -0.0035127847        0.0060872233       -0.0044538717
O         0.0052244051        0.0011582331       -0.0029562684
O        -0.0080407848        0.0003035213        0.0043478972
O         0.0035937471       -0.0056164866        0.0029192733
O         0.0040177212        0.0037635826       -0.0023488291
O        -0.0062196302        0.0032577211        0.0002530381
O         0.0009582311        0.0040105840        0.0058508985
O        -0.0038262119       -0.0087137859        0.0063690036
O        -0.0003512979       -0.0024386041        0.0024327653
O         0.0093988908       -0.0004586313        0.0018064472
O        -0.0077320854       -0.0013950634       -0.0010720678
O         0.0031484227       -0.0015196517        0.0047529533
O        -0.0013997237       -0.0115202819        0.0030683844
O        -0.0047427937        0.0025057117        0.0071705061
O        -0.0038042721        0.0007533231        0.0001516815
O        -0.0009663540        0.0001617226       -0.0206186955
O         0.0022777684       -0.0011396654        0.0024674018
O         0.0041296433        0.0030955166       -0.0039886849
O         0.0104937180       -0.0001619493        0.0051839245
O        -0.0005222479        0.0050834036       -0.0067438128
O         0.0001755683        0.0014718344        0.0055823343
O         0.0008792839        0.0039519298        0.0005667047
O         0.0003173750       -0.0113062748        0.0031279335
O         0.0010388689       -0.0050377243        0.0024805995
O         0.0069121336        0.0039934463        0.0005597087
O         0.0030082866        0.0012132053        0.0025326032
O         0.0028547767        0.0001970410       -0.0059849103
O        -0.0004490866        0.0122647294       -0.0063780385
O         0.0034305205       -0.0008017520        0.0023331376
O         0.0081158125        0.0020457756       -0.0082733696
O         0.0011766829       -0.0002591325       -0.0025157161
O         0.0013837051       -0.0061748384       -0.0025408335
O        -0.0009115117       -0.0064065626       -0.0043033959
O         0.0096266556       -0.0033373457        0.0074743736
O         0.0021563042       -0.0028944892       -0.0003350770
O        -0.0000883664       -0.0031664339       -0.0001677774
O        -0.0032253226       -0.0082044911       -0.0025932077
O        -0.0025857932        0.0065082646        0.0054560850
O        -0.0036026905       -0.0003631883        0.0032317075
O         0.0038088801       -0.0007449972        0.0025921034
O        -0.0001561986       -0.0011257511       -0.0012877991
O         0.0003139385        0.0002243097       -0.0017264463
O         0.0132136152       -0.0061000074       -0.0032603065
O        -0.0004046967        0.0021692509        0.0054757540
O        -0.0034336766       -0.0026170385        0.0011093149
O         0.0026535746        0.0011348012        0.0023134475
O        -0.0063332577        0.0046416434        0.0067720462
O        -0.0004272314        0.0060549358        0.0010987285
O        -0.0031987630        0.0035454669       -0.0013866735
O         0.0047640598       -0.0002803342       -0.0090964416
O        -0.0041270996        0.0101034422        0.0012435184
O        -0.0036151252        0.0033541184        0.0015699684
O        -0.0011336282       -0.0102553567       -0.0077717155
O         0.0118511764        0.0037977002        0.0023135446
O        -0.0008844638        0.0024177492        0.0004586435
O         0.0015363364        0.0006073404       -0.0021795534
O        -0.0003198680       -0.0019278331        0.0017429673
O        -0.0083461071       -0.0004546886       -0.0036214789
O         0.0002698831        0.0000248930        0.0028540183
     192
 i =        3, E =     -5774.1332062209
Ti        -0.0018152772        0.0014039665        0.0024408039
Ti         0.0037606901       -0.0017830197       -0.0018796542
Ti        -0.0031708662       -0.0041545004       -0.0066505564
Ti         0.0010210507        0.0125142801        0.0008034994
Ti         0.0037564936        0.0015328456        0.0004739784
Ti        -0.0059097890        0.0042808736       -0.0034531759
Ti        -0.0049376819        0.0004705707       -0.0029308465
Ti         0.0007349124        0.0007970832        0.0037008618
Ti        -0.0041576742       -0.0029610354       -0.0018191085
Ti         0.0019354453       -0.0037341846       -0.0029068242
Ti        -0.0063757823       -0.0018809166        0.0003042064
Ti         0.0011809133        0.0012645943       -0.0004008559
Ti         0.0063748977       -0.0054699938       -0.0037049827
Ti         0.0007760650        0.0069300768        0.0085567737
Ti        -0.0047761500        0.0009479259       -0.0024154173
Ti        -0.0018674951        0.0123862106       -0.0049259096
Ti        -0.0004967177        0.0007419195       -0.0040436587
Ti         0.0002951269        0.0048646664        0.0020257859
Ti         0.0082653689        0.0070448010       -0.0015047542
Ti         0.0034695606       -0.0052908824       -0.0059859999
Ti         0.0011451261        0.0004136005       -0.0060707439
Ti        -0.0040703243       -0.0079074679       -0.0029716961
Ti         0.0048501363        0.0009612007        0.0055125571
Ti        -0.0086198347        0.0068251480       -0.0026421732
Ti        -0.0039819366       -0.0012863388        0.0052120548
Ti        -0.0086187252        0.0001686593       -0.0024182804
Ti         0.0051414086        0.0024651017       -0.0019601636
Ti        -0.0005103922        0.0049328400        0.0012787692
Ti         0.0022359592        0.0067085072        0.0033370391
Ti         0.0027975558        0.0096460116        0.0056401444
Ti        -0.0012737284        0.0021855401        0.0022778201
Ti        -0.0047891583       -0.0004376542        0.0025267923
Ti         0.0081443233        0.0012865519       -0.0044654727
Ti        -0.0041322938        0.0041678799       -0.0026660491
Ti         0.0033779961       -0.0020741590       -0.0070922126
Ti         0.0148114900       -0.0065737474       -0.0067198422
Ti        -0.0002006631        0.0013438891        0.0022009874
Ti        -0.0034880788       -0.0001958431        0.0051293206
Ti        -0.0053600118        0.0042546989       -0.0041336089
Ti        -0.0024324775        0.0102005868       -0.0020482007
Ti        -0.0075924263        0.0025429425        0.0056822780
Ti         0.0025123169        0.0060407950        0.0009544588
Ti         0.0062191636        0.0023216413       -0.0052806883
Ti        -0.0011697673        0.0050996679        0.0015746110
Ti         0.0008660383       -0.0046954525       -0.0062483728
Ti        -0.0045132706       -0.0018664444       -0.0018277503
Ti         0.0090304785        0.0023934979       -0.0041130677
Ti         0.0025765918        0.0086375122       -0.0009773089
Ti        -0.0017873451        0.0077747696        0.0068876667
Ti        -0.0025137434        0.0033058957        0.0003413880
Ti        -0.0042995296        0.0064501737        0.0041525806
Ti        -0.0055873459       -0.0046873003        0.0013983323
Ti         0.0026238415        0.0008619131       -0.0028982175
Ti         0.0023536662       -0.0033601865       -0.0018028335
Ti        -0.0007308699       -0.0028681749        0.0046154166
Ti         0.0035255783        0.0042452734       -0.0012071137
Ti        -0.0025250853        0.0012377297       -0.0002667493
Ti         0.0055553452       -0.0108223423       -0.0000135431
Ti         0.0033926188        0.0046198382        0.0033964156
Ti        -0.0050313420       -0.0010817757        0.0041256622
Ti        -0.0035940286        0.0011617629        0.0040437700
Ti        -0.0024706694       -0.0099183219        0.0019853486
Ti         0.0042002908        0.0010074283        0.0016439514
Ti        -0.0049289258        0.0051213758       -0.0005731895
O        -0.0012571229        0.0035224948        0.0052343391
O         0.0009838532       -0.0027170392        0.0039062776
O        -0.0043260552        0.0017000278        0.0040864737
O         0.0020908912        0.0018909297        0.0017051713
O         0.0022546130       -0.0003647096       -0.0031259120
O         0.0027996583       -0.0034520257        0.0030470621
O         0.0038879288       -0.0015213085        0.0027916648
O         0.0051516427        0.0006427289       -0.0004205284
O         0.0035462715       -0.0060126724       -0.0017452457
O        -0.0009578808       -0.0033000484       -0.0011072054
O         0.0014337953        0.0008415958        0.0020976905
O         0.0017970488       -0.0010319055        0.0005191631
O         0.0006027187       -0.0015291059        0.0017187961
O        -0.0034299365       -0.0025628115       -0.0034270220
O         0.0032178566       -0.0067840292        0.0003383331
O         0.0042151067       -0.0012517878        0.0022573871
O         0.0000234380       -0.0001376083       -0.0011280732
O         0.0034516990       -0.0010581201       -0.0043572784
O        -0.0032965050        0.0015371176        0.0010979144
O         0.0036930366        0.0037683255        0.0039114337
O         0.0022506701        0.0017557179        0.0034904960
O         0.0033287855       -0.0025226098        0.0057954397