 DBCSR| CPU Multiplication driver                                           XSMM (U)
 DBCSR| Multrec recursion limit                                              512 (U)
 DBCSR| Multiplication stack size                                           1000 (D)
 DBCSR| Maximum elements for images                                    UNLIMITED (U)
 DBCSR| Multiplicative factor virtual images                                   1 (U)
 DBCSR| Use multiplication densification                                       T (D)
 DBCSR| Multiplication size stacks                                             3 (U)
 DBCSR| Use memory pool for CPU allocation                                     F (U)
 DBCSR| Number of 3D layers                                               SINGLE (U)
 DBCSR| Use MPI memory allocation                                              F (U)
 DBCSR| Use RMA algorithm                                                      F (U)
 DBCSR| Use Communication thread                                               T (U)
 DBCSR| Communication thread load                                             87 (D)
 DBCSR| MPI: My process id                                                     0
 DBCSR| MPI: Number of processes                                             128
 DBCSR| OMP: Current number of threads                                         1
 DBCSR| OMP: Max number of threads                                             1
 DBCSR| Split modifier for TAS multiplication algorithm                  1.0E+00 (U)


  **** **** ******  **  PROGRAM STARTED AT               2025-06-17 07:52:02.187
 ***** ** ***  *** **   PROGRAM STARTED ON                             nid003185
 **    ****   ******    PROGRAM STARTED BY                                cahart
 ***** **    ** ** **   PROGRAM PROCESS ID                                 50177
  **** **  *******  **  PROGRAM STARTED IN /mnt/lustre/a2fs-work2/work/e05/e05/c
                                           ahart/postdoc2/work/group/tio2/anatas
                                           e/cell-441/geo-opt/mp-390/neutral-fro
                                           m-hole/pbe-u-o/u-7.0

 CP2K| version string:                                       CP2K version 2024.3
 CP2K| source code revision number:                                  git:6712648
 CP2K| cp2kflags: omp libint fftw3 libxc libgrpp elpa parallel scalapack cosma x
 CP2K|            smm plumed2 spglib mkl sirius libvori libbqb libvdwxc hdf5
 CP2K| is freely available from                            https://www.cp2k.org/
 CP2K| Program compiled at                       Thu 12 Sep 2024 10:20:47 AM BST
 CP2K| Program compiled on                                                  ln04
 CP2K| Program compiled for                                                local
 CP2K| Data directory path    /mnt/lustre/a2fs-work1/work/y07/shared/apps/core/c
 CP2K| Input file name                                                 input.inp

 GLOBAL| Force Environment number                                              1
 GLOBAL| Basis set file name                                        BASIS_MOLOPT
 GLOBAL| Potential file name                                      GTH_POTENTIALS
 GLOBAL| MM Potential file name                                     MM_POTENTIAL
 GLOBAL| Coordinate file name                                         system.xyz
 GLOBAL| Method name                                                        CP2K
 GLOBAL| Project name                                                       tio2
 GLOBAL| Run type                                                         ENERGY
 GLOBAL| FFT library                                                       FFTW3
 GLOBAL| Diagonalization library                                            ELPA
 GLOBAL| DGEMM library                                                      BLAS
 GLOBAL| Minimum number of eigenvectors for ELPA usage                        16
 GLOBAL| Orthonormality check for eigenvectors                          DISABLED
 GLOBAL| Matrix multiplication library                                     COSMA
 GLOBAL| All-to-all communication in single precision                          F
 GLOBAL| FFTs using library dependent lengths                                  F
 GLOBAL| Grid backend                                                       AUTO
 GLOBAL| Global print level                                               MEDIUM
 GLOBAL| MPI I/O enabled                                                       T
 GLOBAL| Total number of message passing processes                           128
 GLOBAL| Number of threads for this process                                    1
 GLOBAL| This output is from process                                           0
 GLOBAL| Stack size for threads created by OpenMP (OMP_STACKSIZE)        default
 GLOBAL| CPU model name                          AMD EPYC 7742 64-Core Processor
 GLOBAL| CPUID                                                              1002

 MEMORY| system memory details [Kb]
 MEMORY|                        rank 0           min           max       average
 MEMORY| MemTotal            263341976     263341976     263341976     263341976
 MEMORY| MemFree             235841036     235841036     235841288     235841091
 MEMORY| Buffers                     0             0             0             0
 MEMORY| Cached                1728604       1728604       1728604       1728604
 MEMORY| Slab                  5210460       5210460       5210476       5210461
 MEMORY| SReclaimable           125724        125724        125724        125724
 MEMORY| MemLikelyFree       237695364     237695364     237695616     237695419


 *** Fundamental physical constants (SI units) ***

 *** Literature: B. J. Mohr and B. N. Taylor,
 ***             CODATA recommended values of the fundamental physical
 ***             constants: 2006, Web Version 5.1
 ***             http://physics.nist.gov/constants

 Speed of light in vacuum [m/s]                             2.99792458000000E+08
 Magnetic constant or permeability of vacuum [N/A**2]       1.25663706143592E-06
 Electric constant or permittivity of vacuum [F/m]          8.85418781762039E-12
 Planck constant (h) [J*s]                                  6.62606896000000E-34
 Planck constant (h-bar) [J*s]                              1.05457162825177E-34
 Elementary charge [C]                                      1.60217648700000E-19
 Electron mass [kg]                                         9.10938215000000E-31
 Electron g factor [ ]                                     -2.00231930436220E+00
 Proton mass [kg]                                           1.67262163700000E-27
 Fine-structure constant                                    7.29735253760000E-03
 Rydberg constant [1/m]                                     1.09737315685270E+07
 Avogadro constant [1/mol]                                  6.02214179000000E+23
 Boltzmann constant [J/K]                                   1.38065040000000E-23
 Atomic mass unit [kg]                                      1.66053878200000E-27
 Bohr radius [m]                                            5.29177208590000E-11

 *** Conversion factors ***

 [u] -> [a.u.]                                              1.82288848426455E+03
 [Angstrom] -> [Bohr] = [a.u.]                              1.88972613288564E+00
 [a.u.] = [Bohr] -> [Angstrom]                              5.29177208590000E-01
 [a.u.] -> [s]                                              2.41888432650478E-17
 [a.u.] -> [fs]                                             2.41888432650478E-02
 [a.u.] -> [J]                                              4.35974393937059E-18
 [a.u.] -> [N]                                              8.23872205491840E-08
 [a.u.] -> [K]                                              3.15774647902944E+05
 [a.u.] -> [kJ/mol]                                         2.62549961709828E+03
 [a.u.] -> [kcal/mol]                                       6.27509468713739E+02
 [a.u.] -> [Pa]                                             2.94210107994716E+13
 [a.u.] -> [bar]                                            2.94210107994716E+08
 [a.u.] -> [atm]                                            2.90362800883016E+08
 [a.u.] -> [eV]                                             2.72113838565563E+01
 [a.u.] -> [Hz]                                             6.57968392072181E+15
 [a.u.] -> [1/cm] (wave numbers)                            2.19474631370540E+05
 [a.u./Bohr**2] -> [1/cm]                                   5.14048714338585E+03
 

 CELL_TOP| Volume [angstrom^3]:                                      2198.132028
 CELL_TOP| Vector a [angstrom    15.120     0.000     0.000   |a| =    15.120000
 CELL_TOP| Vector b [angstrom     0.000    15.120     0.000   |b| =    15.120000
 CELL_TOP| Vector c [angstrom     0.000     0.000     9.615   |c| =     9.615020
 CELL_TOP| Angle (b,c), alpha [degree]:                                90.000000
 CELL_TOP| Angle (a,c), beta  [degree]:                                90.000000
 CELL_TOP| Angle (a,b), gamma [degree]:                                90.000000
 CELL_TOP| Requested initial symmetry:                       MONOCLINIC_GAMMA_AB
 CELL_TOP| Numerically orthorhombic:                                         YES
 CELL_TOP| Periodicity                                                       XYZ

 *** WARNING in atoms_input.F:123 :: Overwriting coordinates. Active    ***
 *** coordinates read from &COORD section. Active coordinates READ from ***
 *** &COORD section                                                     ***


 GENERATE|  Preliminary Number of Bonds generated:                             0
 GENERATE|  Achieved consistency in connectivity generation.

 CELL| Volume [angstrom^3]:                                          2198.132028
 CELL| Vector a [angstrom]:      15.120     0.000     0.000   |a| =    15.120000
 CELL| Vector b [angstrom]:       0.000    15.120     0.000   |b| =    15.120000
 CELL| Vector c [angstrom]:       0.000     0.000     9.615   |c| =     9.615020
 CELL| Angle (b,c), alpha [degree]:                                    90.000000
 CELL| Angle (a,c), beta  [degree]:                                    90.000000
 CELL| Angle (a,b), gamma [degree]:                                    90.000000
 CELL| Requested initial symmetry:                           MONOCLINIC_GAMMA_AB
 CELL| Numerically orthorhombic:                                             YES
 CELL| Periodicity                                                           XYZ

 CELL_REF| Volume [angstrom^3]:                                      2198.132028
 CELL_REF| Vector a [angstrom    15.120     0.000     0.000   |a| =    15.120000
 CELL_REF| Vector b [angstrom     0.000    15.120     0.000   |b| =    15.120000
 CELL_REF| Vector c [angstrom     0.000     0.000     9.615   |c| =     9.615020
 CELL_REF| Angle (b,c), alpha [degree]:                                90.000000
 CELL_REF| Angle (a,c), beta  [degree]:                                90.000000
 CELL_REF| Angle (a,b), gamma [degree]:                                90.000000
 CELL_REF| Requested initial symmetry:                       MONOCLINIC_GAMMA_AB
 CELL_REF| Numerically orthorhombic:                                         YES
 CELL_REF| Periodicity                                                       XYZ

 *******************************************************************************
 *******************************************************************************
 **                                                                           **
 **     #####                         ##              ##                      **
 **    ##   ##            ##          ##              ##                      **
 **   ##     ##                       ##            ######                    **
 **   ##     ##  ##   ##  ##   #####  ##  ##   ####   ##    #####    #####    **
 **   ##     ##  ##   ##  ##  ##      ## ##   ##      ##   ##   ##  ##   ##   **
 **   ##  ## ##  ##   ##  ##  ##      ####     ###    ##   ######   ######    **
 **    ##  ###   ##   ##  ##  ##      ## ##      ##   ##   ##       ##        **
 **     #######   #####   ##   #####  ##  ##  ####    ##    #####   ##        **
 **           ##                                                    ##        **
 **                                                                           **
 **                                                ... make the atoms dance   **
 **                                                                           **
 **            Copyright (C) by CP2K developers group (2000-2024)             **
 **                      J. Chem. Phys. 152, 194103 (2020)                    **
 **                                                                           **
 *******************************************************************************

 DFT| Spin unrestricted (spin-polarized) Kohn-Sham calculation               UKS
 DFT| Multiplicity                                                             1
 DFT| Number of spin states                                                    2
 DFT| Charge                                                                   0
 DFT| Self-interaction correction (SIC)                                       NO
 DFT| Cutoffs: density                                              1.000000E-10
 DFT|          gradient                                             1.000000E-10
 DFT|          tau                                                  1.000000E-10
 DFT|          cutoff_smoothing_range                               0.000000E+00
 DFT| XC density smoothing                                                  NONE
 DFT| XC derivatives                                                          PW

 DFT+U| Method                                                          MULLIKEN
 DFT+U| Check atomic kind information for details

 FUNCTIONAL| PBE:
 FUNCTIONAL| J.P.Perdew, K.Burke, M.Ernzerhof, Phys. Rev. Letter, vol. 77, n 18,
 FUNCTIONAL|  pp. 3865-3868, (1996) {spin polarized}                            


 QS| Method:                                                                 GPW
 QS| Density plane wave grid type                        NON-SPHERICAL FULLSPACE
 QS| Number of grid levels:                                                    4
 QS| Density cutoff [a.u.]:                                                300.0
 QS| Multi grid cutoff [a.u.]: 1) grid level                               300.0
 QS|                           2) grid level                               100.0
 QS|                           3) grid level                                33.3
 QS|                           4) grid level                                11.1
 QS| Grid level progression factor:                                          3.0
 QS| Relative density cutoff [a.u.]:                                        20.0
 QS| Interaction thresholds: eps_pgf_orb:                                1.0E-06
 QS|                         eps_filter_matrix:                          0.0E+00
 QS|                         eps_core_charge:                            1.0E-14
 QS|                         eps_rho_gspace:                             1.0E-12
 QS|                         eps_rho_rspace:                             1.0E-12
 QS|                         eps_gvg_rspace:                             1.0E-06
 QS|                         eps_ppl:                                    1.0E-02
 QS|                         eps_ppnl:                                   1.0E-08


 ATOMIC KIND INFORMATION

  1. Atomic kind: Ti                                    Number of atoms:      64

     Orbital Basis Set                                    DZVP-MOLOPT-SR-GTH-q12

       Number of orbital shell sets:                                           1
       Number of orbital shells:                                               8
       Number of primitive Cartesian functions:                                6
       Number of Cartesian basis functions:                                   31
       Number of spherical basis functions:                                   26
       Norm type:                                                              2

       Normalised Cartesian orbitals:

                        Set   Shell   Orbital            Exponent    Coefficient

                          1       1    2s                7.884570       0.015554
                                                         3.894698       0.963603
                                                         1.513589      -0.631435
                                                         0.596768      -0.343022
                                                         0.222222      -0.006534
                                                         0.077078       0.007652

                          1       2    3s                7.884570      -0.009340
                                                         3.894698       0.212624
                                                         1.513589      -0.258368
                                                         0.596768      -0.226206
                                                         0.222222       0.039438
                                                         0.077078       0.107179

                          1       3    4s                7.884570       0.276563
                                                         3.894698       0.105452
                                                         1.513589       0.085149
                                                         0.596768       0.882541
                                                         0.222222      -0.696223
                                                         0.077078       0.156638

                          1       4    3px               7.884570      -2.034794
                                                         3.894698       0.782008
                                                         1.513589       1.253903
                                                         0.596768       0.347823
                                                         0.222222       0.016778
                                                         0.077078      -0.000433
                          1       4    3py               7.884570      -2.034794
                                                         3.894698       0.782008
                                                         1.513589       1.253903
                                                         0.596768       0.347823
                                                         0.222222       0.016778
                                                         0.077078      -0.000433
                          1       4    3pz               7.884570      -2.034794
                                                         3.894698       0.782008
                                                         1.513589       1.253903
                                                         0.596768       0.347823
                                                         0.222222       0.016778
                                                         0.077078      -0.000433

                          1       5    4px               7.884570       0.376572
                                                         3.894698      -0.182875
                                                         1.513589      -0.474776
                                                         0.596768      -0.081757
                                                         0.222222       0.064432
                                                         0.077078       0.047279
                          1       5    4py               7.884570       0.376572
                                                         3.894698      -0.182875
                                                         1.513589      -0.474776
                                                         0.596768      -0.081757
                                                         0.222222       0.064432
                                                         0.077078       0.047279
                          1       5    4pz               7.884570       0.376572
                                                         3.894698      -0.182875
                                                         1.513589      -0.474776
                                                         0.596768      -0.081757
                                                         0.222222       0.064432
                                                         0.077078       0.047279

                          1       6    4dx2              7.884570       3.047350
                                                         3.894698       3.289529
                                                         1.513589       1.060616
                                                         0.596768       0.249930
                                                         0.222222       0.038806
                                                         0.077078       0.002319
                          1       6    4dxy              7.884570       5.278165
                                                         3.894698       5.697631
                                                         1.513589       1.837041
                                                         0.596768       0.432892
                                                         0.222222       0.067214
                                                         0.077078       0.004017
                          1       6    4dxz              7.884570       5.278165
                                                         3.894698       5.697631
                                                         1.513589       1.837041
                                                         0.596768       0.432892
                                                         0.222222       0.067214
                                                         0.077078       0.004017
                          1       6    4dy2              7.884570       3.047350
                                                         3.894698       3.289529
                                                         1.513589       1.060616
                                                         0.596768       0.249930
                                                         0.222222       0.038806
                                                         0.077078       0.002319
                          1       6    4dyz              7.884570       5.278165
                                                         3.894698       5.697631
                                                         1.513589       1.837041
                                                         0.596768       0.432892
                                                         0.222222       0.067214
                                                         0.077078       0.004017
                          1       6    4dz2              7.884570       3.047350
                                                         3.894698       3.289529
                                                         1.513589       1.060616
                                                         0.596768       0.249930
                                                         0.222222       0.038806
                                                         0.077078       0.002319

                          1       7    5dx2              7.884570      -2.119015
                                                         3.894698      -1.237751
                                                         1.513589      -0.746777
                                                         0.596768      -0.071514
                                                         0.222222       0.004086
                                                         0.077078       0.017595
                          1       7    5dxy              7.884570      -3.670241
                                                         3.894698      -2.143848
                                                         1.513589      -1.293455
                                                         0.596768      -0.123865
                                                         0.222222       0.007077
                                                         0.077078       0.030475
                          1       7    5dxz              7.884570      -3.670241
                                                         3.894698      -2.143848
                                                         1.513589      -1.293455
                                                         0.596768      -0.123865
                                                         0.222222       0.007077
                                                         0.077078       0.030475
                          1       7    5dy2              7.884570      -2.119015
                                                         3.894698      -1.237751
                                                         1.513589      -0.746777
                                                         0.596768      -0.071514
                                                         0.222222       0.004086
                                                         0.077078       0.017595
                          1       7    5dyz              7.884570      -3.670241
                                                         3.894698      -2.143848
                                                         1.513589      -1.293455
                                                         0.596768      -0.123865
                                                         0.222222       0.007077
                                                         0.077078       0.030475
                          1       7    5dz2              7.884570      -2.119015
                                                         3.894698      -1.237751
                                                         1.513589      -0.746777
                                                         0.596768      -0.071514
                                                         0.222222       0.004086
                                                         0.077078       0.017595

                          1       8    5fx3              7.884570      -0.342058
                                                         3.894698       0.375798
                                                         1.513589      -0.706469
                                                         0.596768      -0.229994
                                                         0.222222      -0.012723
                                                         0.077078       0.003932
                          1       8    5fx2y             7.884570      -0.764866
                                                         3.894698       0.840310
                                                         1.513589      -1.579712
                                                         0.596768      -0.514282
                                                         0.222222      -0.028450
                                                         0.077078       0.008792
                          1       8    5fx2z             7.884570      -0.764866
                                                         3.894698       0.840310
                                                         1.513589      -1.579712
                                                         0.596768      -0.514282
                                                         0.222222      -0.028450
                                                         0.077078       0.008792
                          1       8    5fxy2             7.884570      -0.764866
                                                         3.894698       0.840310
                                                         1.513589      -1.579712
                                                         0.596768      -0.514282
                                                         0.222222      -0.028450
                                                         0.077078       0.008792
                          1       8    5fxyz             7.884570      -1.324787
                                                         3.894698       1.455460
                                                         1.513589      -2.736142
                                                         0.596768      -0.890763
                                                         0.222222      -0.049276
                                                         0.077078       0.015229
                          1       8    5fxz2             7.884570      -0.764866
                                                         3.894698       0.840310
                                                         1.513589      -1.579712
                                                         0.596768      -0.514282
                                                         0.222222      -0.028450
                                                         0.077078       0.008792
                          1       8    5fy3              7.884570      -0.342058
                                                         3.894698       0.375798
                                                         1.513589      -0.706469
                                                         0.596768      -0.229994
                                                         0.222222      -0.012723
                                                         0.077078       0.003932
                          1       8    5fy2z             7.884570      -0.764866
                                                         3.894698       0.840310
                                                         1.513589      -1.579712
                                                         0.596768      -0.514282
                                                         0.222222      -0.028450
                                                         0.077078       0.008792
                          1       8    5fyz2             7.884570      -0.764866
                                                         3.894698       0.840310
                                                         1.513589      -1.579712
                                                         0.596768      -0.514282
                                                         0.222222      -0.028450
                                                         0.077078       0.008792
                          1       8    5fz3              7.884570      -0.342058
                                                         3.894698       0.375798
                                                         1.513589      -0.706469
                                                         0.596768      -0.229994
                                                         0.222222      -0.012723
                                                         0.077078       0.003932

       Atomic covalent radius [Angstrom]:                                  1.320

       Atomic van der Waals radius [Angstrom]:                             1.760

     GTH Potential information for                                   GTH-PBE-q12

       Description:                       Goedecker-Teter-Hutter pseudopotential
                                           Goedecker et al., PRB 54, 1703 (1996)
                                          Hartwigsen et al., PRB 58, 3641 (1998)
                                                      Krack, TCA 114, 145 (2005)

       Gaussian exponent of the core charge distribution:               3.462604
       Electronic configuration (s p d ...):                           4   6   2

       Parameters of the local part of the GTH pseudopotential:

                          rloc        C1          C2          C3          C4
                        0.380000    8.711442   -0.700287

       Parameters of the non-local part of the GTH pseudopotential:

                   l      r(l)      h(i,j,l)

                   0    0.337771    2.575264    3.692971
                                    3.692971   -4.767605
                   1    0.242531   -4.630541    8.870875
                                    8.870875  -10.496161
                   2    0.243317   -9.406653

  2. Atomic kind: O                                     Number of atoms:     128

     Orbital Basis Set                                     DZVP-MOLOPT-SR-GTH-q6

       Number of orbital shell sets:                                           1
       Number of orbital shells:                                               5
       Number of primitive Cartesian functions:                                5
       Number of Cartesian basis functions:                                   14
       Number of spherical basis functions:                                   13
       Norm type:                                                              2

       Normalised Cartesian orbitals:

                        Set   Shell   Orbital            Exponent    Coefficient

                          1       1    2s               10.389228       0.396646
                                                         3.849621       0.208811
                                                         1.388401      -0.301641
                                                         0.496955      -0.274061
                                                         0.162492      -0.033677

                          1       2    3s               10.389228       0.303673
                                                         3.849621       0.240943
                                                         1.388401      -0.313066
                                                         0.496955      -0.043055
                                                         0.162492       0.213991

                          1       3    3px              10.389228      -1.530415
                                                         3.849621      -1.371928
                                                         1.388401      -0.761951
                                                         0.496955      -0.253695
                                                         0.162492      -0.035541
                          1       3    3py              10.389228      -1.530415
                                                         3.849621      -1.371928
                                                         1.388401      -0.761951
                                                         0.496955      -0.253695
                                                         0.162492      -0.035541
                          1       3    3pz              10.389228      -1.530415
                                                         3.849621      -1.371928
                                                         1.388401      -0.761951
                                                         0.496955      -0.253695
                                                         0.162492      -0.035541

                          1       4    4px              10.389228      -0.565392
                                                         3.849621      -0.038231
                                                         1.388401      -0.382373
                                                         0.496955       0.179070
                                                         0.162492       0.122714
                          1       4    4py              10.389228      -0.565392
                                                         3.849621      -0.038231
                                                         1.388401      -0.382373
                                                         0.496955       0.179070
                                                         0.162492       0.122714
                          1       4    4pz              10.389228      -0.565392
                                                         3.849621      -0.038231
                                                         1.388401      -0.382373
                                                         0.496955       0.179070
                                                         0.162492       0.122714

                          1       5    4dx2             10.389228       1.867377
                                                         3.849621       0.670994
                                                         1.388401       1.353441
                                                         0.496955       0.273538
                                                         0.162492       0.006620
                          1       5    4dxy             10.389228       3.234392
                                                         3.849621       1.162195
                                                         1.388401       2.344229
                                                         0.496955       0.473781
                                                         0.162492       0.011466
                          1       5    4dxz             10.389228       3.234392
                                                         3.849621       1.162195
                                                         1.388401       2.344229
                                                         0.496955       0.473781
                                                         0.162492       0.011466
                          1       5    4dy2             10.389228       1.867377
                                                         3.849621       0.670994
                                                         1.388401       1.353441
                                                         0.496955       0.273538
                                                         0.162492       0.006620
                          1       5    4dyz             10.389228       3.234392
                                                         3.849621       1.162195
                                                         1.388401       2.344229
                                                         0.496955       0.473781
                                                         0.162492       0.011466
                          1       5    4dz2             10.389228       1.867377
                                                         3.849621       0.670994
                                                         1.388401       1.353441
                                                         0.496955       0.273538
                                                         0.162492       0.006620

       Atomic covalent radius [Angstrom]:                                  0.730

       Atomic van der Waals radius [Angstrom]:                             1.520

     GTH Potential information for                                    GTH-PBE-q6

       Description:                       Goedecker-Teter-Hutter pseudopotential
                                           Goedecker et al., PRB 54, 1703 (1996)
                                          Hartwigsen et al., PRB 58, 3641 (1998)
                                                      Krack, TCA 114, 145 (2005)

       Gaussian exponent of the core charge distribution:               8.360253
       Electronic configuration (s p d ...):                               2   4

       Parameters of the local part of the GTH pseudopotential:

                          rloc        C1          C2          C3          C4
                        0.244554  -16.667215    2.487311

       Parameters of the non-local part of the GTH pseudopotential:

                   l      r(l)      h(i,j,l)

                   0    0.220956   18.337458
                   1    0.211332

     A DFT+U correction is applied to atoms of this atomic kind:
       Angular quantum momentum number L:                                      1
       U(eff) = (U - J) value in [eV]:                                     7.000


 MOLECULE KIND INFORMATION


 All atoms are their own molecule, skipping detailed information


 TOTAL NUMBERS AND MAXIMUM NUMBERS

  Total number of            - Atomic kinds:                                   2
                             - Atoms:                                        192
                             - Shell sets:                                   192
                             - Shells:                                      1152
                             - Primitive Cartesian functions:               1024
                             - Cartesian basis functions:                   3776
                             - Spherical basis functions:                   3328

  Maximum angular momentum of- Orbital basis functions:                        3
                             - Local part of the GTH pseudopotential:          2
                             - Non-local part of the GTH pseudopotential:      3


 MODULE QUICKSTEP: ATOMIC COORDINATES IN ANGSTROM

   Atom Kind Element         X             Y             Z       Z(eff)     Mass
      1    1 Ti   22      0.009182      0.002031     -0.036197  12.0000  47.8670
      2    1 Ti   22      1.882845      1.894343      4.779517  12.0000  47.8670
      3    1 Ti   22      0.003121      1.880839      2.367297  12.0000  47.8670
      4    1 Ti   22      1.886533      0.005898      7.173704  12.0000  47.8670
      5    1 Ti   22     -0.004781      3.773766     -0.028024  12.0000  47.8670
      6    1 Ti   22      1.876180     13.234171      4.772373  12.0000  47.8670
      7    1 Ti   22     11.348371      1.892569      2.366753  12.0000  47.8670
      8    1 Ti   22      5.660797      0.000842      7.193942  12.0000  47.8670
      9    1 Ti   22      1.896815      3.781729      7.177733  12.0000  47.8670
     10    1 Ti   22      0.006711     13.244336      2.368873  12.0000  47.8670
     11    1 Ti   22      5.669049      1.861650      4.769632  12.0000  47.8670
     12    1 Ti   22     11.356903      0.003618     -0.033465  12.0000  47.8670
     13    1 Ti   22      3.763792      0.008921     -0.034266  12.0000  47.8670
     14    1 Ti   22     13.243117      1.897457      4.773829  12.0000  47.8670
     15    1 Ti   22     13.245792      0.002509      7.179226  12.0000  47.8670
     16    1 Ti   22      3.771337      1.883301      2.381674  12.0000  47.8670
     17    1 Ti   22      1.879430      5.678367      4.782619  12.0000  47.8670
     18    1 Ti   22      0.001004     11.358633     -0.036265  12.0000  47.8670
     19    1 Ti   22      0.003867      5.674597      2.359876  12.0000  47.8670
     20    1 Ti   22      1.882219     11.358497      7.179917  12.0000  47.8670
     21    1 Ti   22     -0.003888      7.572723     -0.025363  12.0000  47.8670
     22    1 Ti   22      1.888335      9.478079      4.779716  12.0000  47.8670
     23    1 Ti   22      7.568332      1.877193      2.384784  12.0000  47.8670
     24    1 Ti   22      9.468013      0.006797      7.183828  12.0000  47.8670
     25    1 Ti   22      1.871850      7.577408      7.169547  12.0000  47.8670
     26    1 Ti   22     -0.011251      9.472224      2.360740  12.0000  47.8670
     27    1 Ti   22      9.477390      1.885360      4.771028  12.0000  47.8670
     28    1 Ti   22      7.570481      0.006196     -0.046632  12.0000  47.8670
     29    1 Ti   22      3.761404      3.765329     -0.019672  12.0000  47.8670
     30    1 Ti   22     13.236452     13.247930      4.775260  12.0000  47.8670
     31    1 Ti   22     11.347565      5.664260      2.358243  12.0000  47.8670
     32    1 Ti   22      5.655143     11.348921      7.178647  12.0000  47.8670
     33    1 Ti   22     13.249186      3.781810      7.168668  12.0000  47.8670
     34    1 Ti   22      3.776358     13.242197      2.371831  12.0000  47.8670
     35    1 Ti   22      5.678069      5.604328      4.756913  12.0000  47.8670
     36    1 Ti   22     11.350691     11.371453     -0.040430  12.0000  47.8670
     37    1 Ti   22     11.353870     13.238440      2.381686  12.0000  47.8670
     38    1 Ti   22      5.670243      3.776730      7.190225  12.0000  47.8670
     39    1 Ti   22      3.766113     11.352776     -0.030821  12.0000  47.8670
     40    1 Ti   22     13.245717      5.686360      4.778511  12.0000  47.8670
     41    1 Ti   22      5.658041     13.236815      4.772254  12.0000  47.8670
     42    1 Ti   22     11.353920      3.777743     -0.034148  12.0000  47.8670
     43    1 Ti   22     13.236984     11.356394      7.177802  12.0000  47.8670
     44    1 Ti   22      3.777093      5.676065      2.367263  12.0000  47.8670
     45    1 Ti   22      3.746578      7.582353     -0.010078  12.0000  47.8670
     46    1 Ti   22     13.260175      9.476729      4.779291  12.0000  47.8670
     47    1 Ti   22      7.579916      5.646341      2.352196  12.0000  47.8670
     48    1 Ti   22      9.453352     11.371964      7.184877  12.0000  47.8670
     49    1 Ti   22     13.234775      7.582836      7.167265  12.0000  47.8670
     50    1 Ti   22      3.759594      9.477376      2.380000  12.0000  47.8670
     51    1 Ti   22      9.495723      5.667828      4.784676  12.0000  47.8670
     52    1 Ti   22      7.564236     11.383829     -0.048293  12.0000  47.8670
     53    1 Ti   22     11.345828      9.471568      2.358619  12.0000  47.8670
     54    1 Ti   22      5.652759      7.572125      7.270214  12.0000  47.8670
     55    1 Ti   22      5.655877      9.482582      4.769922  12.0000  47.8670
     56    1 Ti   22     11.366598      7.576451     -0.023502  12.0000  47.8670
     57    1 Ti   22      9.472473      3.782452      7.175477  12.0000  47.8670
     58    1 Ti   22      7.561439     13.239091      2.385351  12.0000  47.8670
     59    1 Ti   22      7.574342      3.757816     -0.047415  12.0000  47.8670
     60    1 Ti   22      9.450686     13.248372      4.763771  12.0000  47.8670
     61    1 Ti   22      7.595879      7.551713     -0.029451  12.0000  47.8670
     62    1 Ti   22      9.522791      9.465880      4.796497  12.0000  47.8670
     63    1 Ti   22      7.563344      9.457181      2.287699  12.0000  47.8670
     64    1 Ti   22      9.465028      7.579214      7.194569  12.0000  47.8670
     65    2 O     8      0.000759      0.001425      1.940407   6.0000  15.9994
     66    2 O     8      1.883262      1.889985      6.746717   6.0000  15.9994
     67    2 O     8      0.001706      1.884794      4.342751   6.0000  15.9994
     68    2 O     8      1.886147      0.000853      9.152415   6.0000  15.9994
     69    2 O     8      1.881113      0.003395      5.203423   6.0000  15.9994
     70    2 O     8     -0.000564      1.886391      0.397161   6.0000  15.9994
     71    2 O     8      1.885810      1.885278      2.800240   6.0000  15.9994
     72    2 O     8      0.001407      0.001558      7.608889   6.0000  15.9994
     73    2 O     8      0.003428      3.776137      1.940768   6.0000  15.9994
     74    2 O     8      1.884014     13.240006      6.748844   6.0000  15.9994
     75    2 O     8     11.351970      1.884678      4.344004   6.0000  15.9994
     76    2 O     8      5.668438      0.002475      9.153548   6.0000  15.9994
     77    2 O     8      1.885344      3.785646      5.202420   6.0000  15.9994
     78    2 O     8     -0.000520     13.238188      0.395699   6.0000  15.9994
     79    2 O     8      5.665180      1.882820      2.798037   6.0000  15.9994
     80    2 O     8     11.353976      0.000120      7.608259   6.0000  15.9994
     81    2 O     8      3.772986      0.001149      7.610881   6.0000  15.9994
     82    2 O     8     13.236555      1.884491      2.800848   6.0000  15.9994
     83    2 O     8     13.238366     -0.000042      9.152543   6.0000  15.9994
     84    2 O     8      3.771411      1.885139      4.343735   6.0000  15.9994
     85    2 O     8      1.883138      5.683125      6.746802   6.0000  15.9994
     86    2 O     8      0.001045     11.354528      1.939499   6.0000  15.9994
     87    2 O     8      0.000048      5.678484      0.397467   6.0000  15.9994
     88    2 O     8      1.882794     11.355643      5.203811   6.0000  15.9994
     89    2 O     8     -0.001179      7.574717      1.941789   6.0000  15.9994
     90    2 O     8      1.882858      9.470209      6.746486   6.0000  15.9994
     91    2 O     8      7.563892      1.883029      4.345633   6.0000  15.9994
     92    2 O     8      9.466362      0.001360      9.148952   6.0000  15.9994
     93    2 O     8      1.882602      7.581631      5.203583   6.0000  15.9994
     94    2 O     8     -0.000468      9.467977      0.397647   6.0000  15.9994
     95    2 O     8      9.464127      1.883080      2.805268   6.0000  15.9994
     96    2 O     8      7.571126      0.002736      7.605770   6.0000  15.9994
     97    2 O     8      3.767489      0.003193      1.937944   6.0000  15.9994
     98    2 O     8     13.239369      1.890770      6.745608   6.0000  15.9994
     99    2 O     8      0.002413      5.708257      4.342859   6.0000  15.9994
    100    2 O     8      1.885987     11.354887      9.151424   6.0000  15.9994
    101    2 O     8     13.237218      0.002751      5.206026   6.0000  15.9994
    102    2 O     8      3.768005      1.888500      0.394302   6.0000  15.9994
    103    2 O     8      1.889377      5.650492      2.801851   6.0000  15.9994
    104    2 O     8      0.001745     11.356380      7.609268   6.0000  15.9994
    105    2 O     8     11.354060      1.888812      0.397728   6.0000  15.9994
    106    2 O     8      5.654078      0.000265      5.207086   6.0000  15.9994
    107    2 O     8      5.652445      1.889872      6.747705   6.0000  15.9994
    108    2 O     8     11.353810      0.002968      1.938535   6.0000  15.9994
    109    2 O     8      1.885863      3.772310      9.150786   6.0000  15.9994
    110    2 O     8      0.000277     13.237815      4.343414   6.0000  15.9994
    111    2 O     8      0.002295      3.771875      7.608315   6.0000  15.9994
    112    2 O     8      1.885344     13.238093      2.803121   6.0000  15.9994
    113    2 O     8      3.769591      3.777498      1.936767   6.0000  15.9994
    114    2 O     8     13.237477     13.239294      6.745255   6.0000  15.9994
    115    2 O     8     11.352539      5.709268      4.344119   6.0000  15.9994
    116    2 O     8      5.664959     11.350491      9.156462   6.0000  15.9994
    117    2 O     8     13.238165      3.788534      5.205775   6.0000  15.9994
    118    2 O     8      3.765435     13.238916      0.395248   6.0000  15.9994
    119    2 O     8      5.692585      5.641600      2.798940   6.0000  15.9994
    120    2 O     8     11.348371     11.355674      7.609212   6.0000  15.9994
    121    2 O     8     11.354832     13.236599      0.395495   6.0000  15.9994
    122    2 O     8      5.651766      3.766918      5.206849   6.0000  15.9994
    123    2 O     8      3.771476     11.353644      7.608623   6.0000  15.9994
    124    2 O     8     13.236108      5.652120      2.799292   6.0000  15.9994
    125    2 O     8      5.651301     13.237556      6.751556   6.0000  15.9994
    126    2 O     8     11.353910      3.776953      1.940981   6.0000  15.9994
    127    2 O     8     13.235644     11.354824      9.153343   6.0000  15.9994
    128    2 O     8      3.781147      5.713273      4.346884   6.0000  15.9994
    129    2 O     8      5.652418      5.707316      6.732951   6.0000  15.9994
    130    2 O     8     11.351166     11.352732      1.938929   6.0000  15.9994
    131    2 O     8     13.234379      3.770149      9.151020   6.0000  15.9994
    132    2 O     8      3.773976     13.237892      4.345139   6.0000  15.9994
    133    2 O     8     11.354930      5.675000      0.398238   6.0000  15.9994
    134    2 O     8      5.652629     11.364945      5.211374   6.0000  15.9994
    135    2 O     8      3.770479      3.773781      7.606790   6.0000  15.9994
    136    2 O     8     13.236472     13.239787      2.801011   6.0000  15.9994
    137    2 O     8     13.237011     11.352985      5.202305   6.0000  15.9994
    138    2 O     8      3.767322      5.682730      0.396096   6.0000  15.9994
    139    2 O     8      5.668388     13.237412      2.800353   6.0000  15.9994
    140    2 O     8     11.349943      3.771011      7.606219   6.0000  15.9994
    141    2 O     8      3.771299     11.354407      1.938959   6.0000  15.9994
    142    2 O     8     13.239897      5.686208      6.748903   6.0000  15.9994
    143    2 O     8     11.347835     13.234261      4.345706   6.0000  15.9994
    144    2 O     8      5.664592      3.770783      9.154354   6.0000  15.9994
    145    2 O     8      3.774947      7.576152      1.943844   6.0000  15.9994
    146    2 O     8     13.238307      9.470040      6.746102   6.0000  15.9994
    147    2 O     8      7.572172      5.702257      4.389927   6.0000  15.9994
    148    2 O     8      9.455352     11.354110      9.148499   6.0000  15.9994
    149    2 O     8     13.239043      7.582820      5.206754   6.0000  15.9994
    150    2 O     8      3.768160      9.466516      0.397991   6.0000  15.9994
    151    2 O     8      9.459444      5.649877      2.807883   6.0000  15.9994
    152    2 O     8      7.553018     11.351814      7.607776   6.0000  15.9994
    153    2 O     8     11.352172      9.467089      0.399789   6.0000  15.9994
    154    2 O     8      5.706540      7.573595      5.082028   6.0000  15.9994
    155    2 O     8      5.647985      9.423247      6.740995   6.0000  15.9994
    156    2 O     8     11.348537      7.571940      1.944024   6.0000  15.9994
    157    2 O     8      9.464395      3.768063      9.149828   6.0000  15.9994
    158    2 O     8      7.564219     13.241924      4.341246   6.0000  15.9994
    159    2 O     8      7.561341      3.772831      7.608503   6.0000  15.9994
    160    2 O     8      9.461650     13.239490      2.799112   6.0000  15.9994
    161    2 O     8      7.585184     -0.001088      1.940890   6.0000  15.9994
    162    2 O     8      9.468309      1.890761      6.749546   6.0000  15.9994
    163    2 O     8      0.003374      9.472280      4.338540   6.0000  15.9994
    164    2 O     8      1.884732      7.586073      9.154360   6.0000  15.9994
    165    2 O     8      9.467606      0.003607      5.206563   6.0000  15.9994
    166    2 O     8      7.586732      1.885669      0.397182   6.0000  15.9994
    167    2 O     8      1.888475      9.473273      2.791133   6.0000  15.9994
    168    2 O     8     -0.000390      7.587526      7.610636   6.0000  15.9994
    169    2 O     8      7.585474      3.769757      1.937296   6.0000  15.9994
    170    2 O     8      9.471983     13.236233      6.747855   6.0000  15.9994
    171    2 O     8     11.356615      9.473535      4.345678   6.0000  15.9994
    172    2 O     8      5.672255      7.580469      9.157154   6.0000  15.9994
    173    2 O     8      9.468066      3.778053      5.204010   6.0000  15.9994
    174    2 O     8      7.581428     13.238192      0.394745   6.0000  15.9994
    175    2 O     8      5.704980      9.476434      2.804133   6.0000  15.9994
    176    2 O     8     11.355064      7.588464      7.609348   6.0000  15.9994
    177    2 O     8      3.772824      7.584287      7.608611   6.0000  15.9994
    178    2 O     8     13.231441      9.472139      2.800191   6.0000  15.9994
    179    2 O     8     13.238470      7.586986      9.153068   6.0000  15.9994
    180    2 O     8      3.760383      9.472140      4.336658   6.0000  15.9994
    181    2 O     8      9.475653      5.682435      6.747799   6.0000  15.9994
    182    2 O     8      7.581470     11.356757      1.939728   6.0000  15.9994
    183    2 O     8      7.584284      5.660543      0.395675   6.0000  15.9994
    184    2 O     8      9.409610     11.350844      5.202848   6.0000  15.9994
    185    2 O     8      7.586774      7.553702      1.941075   6.0000  15.9994
    186    2 O     8      9.481093      9.465113      6.752234   6.0000  15.9994
    187    2 O     8      7.550436      9.417813      4.464616   6.0000  15.9994
    188    2 O     8      9.465535      7.583616      9.151942   6.0000  15.9994
    189    2 O     8      9.415765      7.579130      5.191167   6.0000  15.9994
    190    2 O     8      7.581757      9.460262      0.396592   6.0000  15.9994
    191    2 O     8      9.420863      9.473848      2.825355   6.0000  15.9994
    192    2 O     8      7.572313      7.580132      7.608495   6.0000  15.9994



 SCF PARAMETERS         Density guess:                                   RESTART
                        --------------------------------------------------------
                        max_scf:                                              40
                        max_scf_history:                                       0
                        max_diis:                                              4
                        --------------------------------------------------------
                        eps_scf:                                        1.00E-06
                        eps_scf_history:                                0.00E+00
                        eps_diis:                                       1.00E-01
                        eps_eigval:                                     1.00E-05
                        --------------------------------------------------------
                        level_shift [a.u.]:                             0.000000
                        --------------------------------------------------------
                        Outer loop SCF in use 
                        No variables optimised in outer loop
                        eps_scf                                         1.00E-06
                        max_scf                                               60
                        No outer loop optimization
                        step_size                                       5.00E-01

 PW_GRID| Information for grid number                                          1
 PW_GRID| Grid distributed over                                   128 processors
 PW_GRID| Real space group dimensions                                   128    1
 PW_GRID| the grid is blocked:                                                NO
 PW_GRID| Cutoff [a.u.]                                                    300.0
 PW_GRID| spherical cutoff:                                                   NO
 PW_GRID|   Bounds   1           -112     112                Points:         225
 PW_GRID|   Bounds   2           -112     112                Points:         225
 PW_GRID|   Bounds   3            -72      71                Points:         144
 PW_GRID| Volume element (a.u.^3)  0.2035E-02     Volume (a.u.^3)     14833.7304
 PW_GRID| Grid span                                                    FULLSPACE
 PW_GRID|   Distribution                         Average         Max         Min
 PW_GRID|   G-Vectors                            56953.1       57150       56925
 PW_GRID|   G-Rays                                 253.1         254         253
 PW_GRID|   Real Space Points                    56953.1       64800       32400

 PW_GRID| Information for grid number                                          2
 PW_GRID| Number of the reference grid                                         1
 PW_GRID| Grid distributed over                                   128 processors
 PW_GRID| Real space group dimensions                                   128    1
 PW_GRID| the grid is blocked:                                                NO
 PW_GRID| Cutoff [a.u.]                                                    100.0
 PW_GRID| spherical cutoff:                                                   NO
 PW_GRID|   Bounds   1            -67      67                Points:         135
 PW_GRID|   Bounds   2            -67      67                Points:         135
 PW_GRID|   Bounds   3            -40      40                Points:          81
 PW_GRID| Volume element (a.u.^3)  0.1005E-01     Volume (a.u.^3)     14833.7304
 PW_GRID| Grid span                                                    FULLSPACE
 PW_GRID|   Distribution                         Average         Max         Min
 PW_GRID|   G-Vectors                            11533.0       12150       10800
 PW_GRID|   G-Rays                                  85.4          90          80
 PW_GRID|   Real Space Points                    11533.0       21870       10935

 PW_GRID| Information for grid number                                          3
 PW_GRID| Number of the reference grid                                         1
 PW_GRID| Grid distributed over                                   128 processors
 PW_GRID| Real space group dimensions                                     8   16
 PW_GRID| the grid is blocked:                                                NO
 PW_GRID| Cutoff [a.u.]                                                     33.3
 PW_GRID| spherical cutoff:                                                   NO
 PW_GRID|   Bounds   1            -37      37                Points:          75
 PW_GRID|   Bounds   2            -37      37                Points:          75
 PW_GRID|   Bounds   3            -24      23                Points:          48
 PW_GRID| Volume element (a.u.^3)  0.5494E-01     Volume (a.u.^3)     14833.7304
 PW_GRID| Grid span                                                    FULLSPACE
 PW_GRID|   Distribution                         Average         Max         Min
 PW_GRID|   G-Vectors                             2109.4        2475        1725
 PW_GRID|   G-Rays                                  28.1          33          23
 PW_GRID|   Real Space Points                     2109.4        2400        1728

 PW_GRID| Information for grid number                                          4
 PW_GRID| Number of the reference grid                                         1
 PW_GRID| Grid distributed over                                   128 processors
 PW_GRID| Real space group dimensions                                     8   16
 PW_GRID| the grid is blocked:                                                NO
 PW_GRID| Cutoff [a.u.]                                                     11.1
 PW_GRID| spherical cutoff:                                                   NO
 PW_GRID|   Bounds   1            -22      22                Points:          45
 PW_GRID|   Bounds   2            -22      22                Points:          45
 PW_GRID|   Bounds   3            -13      13                Points:          27
 PW_GRID| Volume element (a.u.^3)  0.2713         Volume (a.u.^3)     14833.7304
 PW_GRID| Grid span                                                    FULLSPACE
 PW_GRID|   Distribution                         Average         Max         Min
 PW_GRID|   G-Vectors                              427.1         585         270
 PW_GRID|   G-Rays                                   9.5          13           6
 PW_GRID|   Real Space Points                      427.1         486         270

 POISSON| Solver                                                        PERIODIC
 POISSON| Periodicity                                                        XYZ

 RS_GRID| Information for grid number                                          1
 RS_GRID|   Bounds   1           -112     112                Points:         225
 RS_GRID|   Bounds   2           -112     112                Points:         225
 RS_GRID|   Bounds   3            -72      71                Points:         144
 RS_GRID| Real space distribution over                                  8 groups
 RS_GRID| Real space distribution along direction                              1
 RS_GRID| Border size                                                         26
 RS_GRID| Real space distribution over                                 16 groups
 RS_GRID| Real space distribution along direction                              2
 RS_GRID| Border size                                                         26
 RS_GRID|   Distribution                         Average         Max         Min
 RS_GRID|   Planes                                  80.1          81          80
 RS_GRID|   Distribution                         Average         Max         Min
 RS_GRID|   Planes                                  66.1          67          66

 RS_GRID| Information for grid number                                          2
 RS_GRID|   Bounds   1            -67      67                Points:         135
 RS_GRID|   Bounds   2            -67      67                Points:         135
 RS_GRID|   Bounds   3            -40      40                Points:          81
 RS_GRID| Real space distribution over                                  8 groups
 RS_GRID| Real space distribution along direction                              1
 RS_GRID| Border size                                                         24
 RS_GRID| Real space distribution over                                 16 groups
 RS_GRID| Real space distribution along direction                              2
 RS_GRID| Border size                                                         24
 RS_GRID|   Distribution                         Average         Max         Min
 RS_GRID|   Planes                                  64.9          65          64
 RS_GRID|   Distribution                         Average         Max         Min
 RS_GRID|   Planes                                  56.4          57          56

 RS_GRID| Information for grid number                                          3
 RS_GRID|   Bounds   1            -37      37                Points:          75
 RS_GRID|   Bounds   2            -37      37                Points:          75
 RS_GRID|   Bounds   3            -24      23                Points:          48
 RS_GRID| Real space fully replicated
 RS_GRID| Group size                                                           1

 RS_GRID| Information for grid number                                          4
 RS_GRID|   Bounds   1            -22      22                Points:          45
 RS_GRID|   Bounds   2            -22      22                Points:          45
 RS_GRID|   Bounds   3            -13      13                Points:          27
 RS_GRID| Real space fully replicated
 RS_GRID| Group size                                                           1

 Spin 1

 Number of electrons:                                                        768
 Number of occupied orbitals:                                                768
 Number of molecular orbitals:                                               768

 Spin 2

 Number of electrons:                                                        768
 Number of occupied orbitals:                                                768
 Number of molecular orbitals:                                               768

 Number of orbital functions:                                               3328
 Number of independent orbital functions:                                   3328

 Extrapolation method: initial_guess

 *** WARNING in qs_initial_guess.F:306 :: User requested to restart the    ***
 *** wavefunction from the file named: tio2-RESTART.wfn. This file does    ***
 *** not exist. Please check the existence of the file or change properly  ***
 *** the value of the keyword WFN_RESTART_FILE_NAME. Calculation continues ***
 *** using ATOMIC GUESS.                                                   ***


 Atomic guess: The first density matrix is obtained in terms of atomic orbitals
               and electronic configurations assigned to each atomic kind

 Guess for atomic kind: Ti

 Electronic structure
    Total number of core electrons                                         10.00
    Total number of valence electrons                                      12.00
    Total number of electrons                                              22.00
    Multiplicity                                                   not specified
    S   [  2.00  2.00] 2.00  2.00
    P   [  6.00] 6.00
    D      2.00


 *******************************************************************************
                  Iteration          Convergence                     Energy [au]
 *******************************************************************************
                          1         2.59099                     -56.573945749309
                          2        0.737518                     -57.461623245624
                          3        0.123244E-01                 -57.676656834797
                          4        0.338536E-02                 -57.676690535970
                          5        0.252157E-03                 -57.676697146183
                          6        0.162704E-05                 -57.676697160103
                          7        0.846593E-06                 -57.676697160104

 Energy components [Hartree]           Total Energy ::          -57.676697160104
                                        Band Energy ::          -13.440549799540
                                     Kinetic Energy ::           25.008468428381
                                   Potential Energy ::          -82.685165588485
                                      Virial (-V/T) ::            3.306286661467
                                        Core Energy ::          -97.155838374470
                                          XC Energy ::           -6.919409696495
                                     Coulomb Energy ::           46.398550910862
                       Total Pseudopotential Energy ::         -122.259340742080
                       Local Pseudopotential Energy ::         -118.928992669456
                    Nonlocal Pseudopotential Energy ::           -3.330348072625
                                        Confinement ::            0.950339392289

 Orbital energies  State     L     Occupation   Energy[a.u.]          Energy[eV]

                       1     0          2.000      -2.312566          -62.928123
                       2     0          2.000      -0.123060           -3.348633

                       1     1          6.000      -1.385567          -37.703193

                       1     2          2.000      -0.127948           -3.481643


 Total Electron Density at R=0:                                         0.004726

 Guess for atomic kind: O

 Electronic structure
    Total number of core electrons                                          2.00
    Total number of valence electrons                                       6.00
    Total number of electrons                                               8.00
    Multiplicity                                                   not specified
    S   [  2.00] 2.00
    P      4.00


 *******************************************************************************
                  Iteration          Convergence                     Energy [au]
 *******************************************************************************
                          1        0.702811                     -15.577904332270
                          2        0.612408                     -15.588447180504
                          3        0.955344E-02                 -15.655871208406
                          4        0.223754E-02                 -15.655885053552
                          5        0.157183E-02                 -15.655885461027
                          6        0.124953E-02                 -15.655885607150
                          7        0.312011E-06                 -15.655885858066

 Energy components [Hartree]           Total Energy ::          -15.655885858066
                                        Band Energy ::           -2.983128125584
                                     Kinetic Energy ::           11.754765134683
                                   Potential Energy ::          -27.410650992749
                                      Virial (-V/T) ::            2.331875684345
                                        Core Energy ::          -26.153522949072
                                          XC Energy ::           -3.157392363346
                                     Coulomb Energy ::           13.655029454351
                       Total Pseudopotential Energy ::          -37.943026860963
                       Local Pseudopotential Energy ::          -39.220419683052
                    Nonlocal Pseudopotential Energy ::            1.277392822089
                                        Confinement ::            0.347387772086

 Orbital energies  State     L     Occupation   Energy[a.u.]          Energy[eV]

                       1     0          2.000      -0.861522          -23.443215

                       1     1          4.000      -0.315021           -8.572154


 Total Electron Density at R=0:                                         0.000093

 Spin 1
 Re-scaling the density matrix to get the right number of electrons for spin 1
                  # Electrons              Trace(P)               Scaling factor
                          768               768.001                        1.000

 Spin 2
 Re-scaling the density matrix to get the right number of electrons for spin 2
                  # Electrons              Trace(P)               Scaling factor
                          768               768.001                        1.000


 SCF WAVEFUNCTION OPTIMIZATION

  ----------------------------------- OT ---------------------------------------
  Minimizer      : DIIS                : direct inversion
                                         in the iterative subspace
                                         using   7 DIIS vectors
                                         safer DIIS on
  Preconditioner : FULL_SINGLE_INVERSE : inversion of 
                                         H + eS - 2*(Sc)(c^T*H*c+const)(Sc)^T
  Precond_solver : DEFAULT
  stepsize       :    0.08000000                  energy_gap     :    0.08000000
  eps_taylor     :   0.10000E-15                  max_taylor     :             4
  ----------------------------------- OT ---------------------------------------

  Step     Update method      Time    Convergence         Total energy    Change
  ------------------------------------------------------------------------------
     1 OT DIIS     0.80E-01    2.0     0.00994504     -5648.6283981863 -5.65E+03
     2 OT DIIS     0.80E-01    1.5     0.00720792     -5682.9780380317 -3.43E+01
     3 OT DIIS     0.80E-01    1.5     0.00456152     -5715.5943684441 -3.26E+01
     4 OT DIIS     0.80E-01    1.5     0.00362457     -5726.0941282373 -1.05E+01
     5 OT DIIS     0.80E-01    1.5     0.00265311     -5736.9709194882 -1.09E+01
     6 OT DIIS     0.80E-01    1.5     0.00218406     -5743.7879904990 -6.82E+00
     7 OT DIIS     0.80E-01    1.5     0.00184139     -5749.6946900559 -5.91E+00
     8 OT DIIS     0.80E-01    1.5     0.00147243     -5755.4366797981 -5.74E+00
     9 OT DIIS     0.80E-01    1.5     0.00126339     -5759.0011414877 -3.56E+00
    10 OT DIIS     0.80E-01    1.5     0.00098712     -5762.1745510997 -3.17E+00
    11 OT DIIS     0.80E-01    1.4     0.00089874     -5762.9840029047 -8.09E-01
    12 OT DIIS     0.80E-01    1.5     0.00073086     -5764.6880036041 -1.70E+00
    13 OT DIIS     0.80E-01    1.4     0.00059696     -5766.0163701614 -1.33E+00
    14 OT DIIS     0.80E-01    1.4     0.00049631     -5766.8979358673 -8.82E-01
    15 OT DIIS     0.80E-01    1.4     0.00044224     -5767.3785986503 -4.81E-01
    16 OT DIIS     0.80E-01    1.4     0.00037988     -5767.8445031848 -4.66E-01
    17 OT DIIS     0.80E-01    1.5     0.00033689     -5768.1610649456 -3.17E-01
    18 OT DIIS     0.80E-01    1.4     0.00029331     -5768.4667425885 -3.06E-01
    19 OT DIIS     0.80E-01    1.4     0.00026443     -5768.6260446222 -1.59E-01
    20 OT DIIS     0.80E-01    1.4     0.00025092     -5768.7259653045 -9.99E-02
    21 OT DIIS     0.80E-01    1.5     0.00023177     -5768.8979112696 -1.72E-01
    22 OT DIIS     0.80E-01    1.4     0.00021282     -5769.0190174041 -1.21E-01
    23 OT DIIS     0.80E-01    1.4     0.00018832     -5769.1788873096 -1.60E-01
    24 OT DIIS     0.80E-01    1.4     0.00017399     -5769.2572878463 -7.84E-02
    25 OT DIIS     0.80E-01    1.4     0.00017781     -5769.2933547817 -3.61E-02
    26 OT DIIS     0.80E-01    1.4     0.00016792     -5769.3370776860 -4.37E-02
    27 OT DIIS     0.80E-01    1.5     0.00015438     -5769.4068438125 -6.98E-02
    28 OT DIIS     0.80E-01    1.4     0.00015090     -5769.4280588801 -2.12E-02
    29 OT DIIS     0.80E-01    1.4     0.00014146     -5769.4914471075 -6.34E-02
    30 OT DIIS     0.80E-01    1.4     0.00012900     -5769.5503039880 -5.89E-02
    31 OT DIIS     0.80E-01    1.4     0.00011558     -5769.6114319280 -6.11E-02
    32 OT DIIS     0.80E-01    1.4     0.00010337     -5769.6559304720 -4.45E-02
    33 OT DIIS     0.80E-01    1.5     0.00010232     -5769.6595649552 -3.63E-03
    34 OT DIIS     0.80E-01    1.4     0.00008949     -5769.6963380768 -3.68E-02
    35 OT SD       0.80E-01    1.4     0.00009077     -5769.7067828704 -1.04E-02
    36 OT DIIS     0.80E-01    1.4     0.00008679     -5769.7100675400 -3.28E-03
    37 OT DIIS     0.80E-01    1.5     0.00007483     -5769.7503456006 -4.03E-02
    38 OT DIIS     0.80E-01    1.5     0.00007052     -5769.7656894936 -1.53E-02
    39 OT DIIS     0.80E-01    1.4     0.00006781     -5769.7777804810 -1.21E-02
    40 OT DIIS     0.80E-01    1.4     0.00007542     -5769.7875762729 -9.80E-03

  Leaving inner SCF loop after reaching    40 steps.


  Electronic density on regular grids:      -1535.9999999999        0.0000000001
  Core density on regular grids:             1535.9999999995       -0.0000000005
  Total charge density on r-space grids:       -0.0000000004
  Total charge density g-space grids:          -0.0000000004

  Overlap energy of the core charge distribution:               0.00000000000345
  Self energy of the core charge distribution:             -12156.89556134359555
  Core Hamiltonian energy:                                   3306.19820589981555
  Hartree energy:                                            3993.73942753773918
  Exchange-correlation energy:                               -930.24925386899645

  DFT+U energy:                                                17.41960550209947

  Total energy:                                             -5769.78757627293362

  outer SCF iter =    1 RMS gradient =   0.75E-04 energy =      -5769.7875762729

  ----------------------------------- OT ---------------------------------------
  Minimizer      : DIIS                : direct inversion
                                         in the iterative subspace
                                         using   7 DIIS vectors
                                         safer DIIS on
  Preconditioner : FULL_SINGLE_INVERSE : inversion of 
                                         H + eS - 2*(Sc)(c^T*H*c+const)(Sc)^T
  Precond_solver : DEFAULT
  stepsize       :    0.08000000                  energy_gap     :    0.08000000
  eps_taylor     :   0.10000E-15                  max_taylor     :             4
  ----------------------------------- OT ---------------------------------------

[...]
 flops    13 x    13 x    32         105306652672       0.0%    100.0%      0.0%     
 flops    26 x    13 x    32         107743281152       0.0%    100.0%      0.0%     
 flops    13 x    26 x    32         107743281152       0.0%    100.0%      0.0%     
 flops    26 x    26 x    32         109426769920       0.0%    100.0%      0.0%     
 flops    96 x    32 x    32         126835752960       0.0%    100.0%      0.0%     
 flops    13 x    13 x    64         210613305344       0.0%    100.0%      0.0%     
 flops    26 x    13 x    64         215486562304       0.0%    100.0%      0.0%     
 flops    13 x    26 x    64         215486562304       0.0%    100.0%      0.0%     
 flops    26 x    26 x    64         218853539840       0.0%    100.0%      0.0%     
 flops    96 x    64 x    32         253671505920       0.0%    100.0%      0.0%     
 flops    96 x    32 x    64         253671505920       0.0%    100.0%      0.0%     
 flops   416 x    32 x    32         314941898752       0.0%    100.0%      0.0%     
 flops    96 x    64 x    64         507343011840       0.0%    100.0%      0.0%     
 flops   416 x    64 x    32         629883797504       0.0%    100.0%      0.0%     
 flops   416 x    32 x    64         629883797504       0.0%    100.0%      0.0%     
 flops    96 x    32 x   208         768243400704       0.0%    100.0%      0.0%     
 flops   416 x    32 x   208         870452297728       0.0%    100.0%      0.0%     
 flops   416 x    64 x    64        1259767595008       0.0%    100.0%      0.0%     
 flops    13 x    32 x    13        1314317402112       0.0%    100.0%      0.0%     
 flops    26 x    32 x    26        1356714737664       0.0%    100.0%      0.0%     
 flops    26 x    32 x    13        1356714737664       0.0%    100.0%      0.0%     
 flops    13 x    32 x    26        1356714737664       0.0%    100.0%      0.0%     
 flops    96 x    64 x   208        1537631846400       0.0%    100.0%      0.0%     
 flops   416 x    64 x   208        1746575294464       0.0%    100.0%      0.0%     
 flops inhomo. stacks                     2690388     100.0%      0.0%      0.0%
 flops total                        15.612415E+12       0.0%    100.0%      0.0%
 flops max/rank                    161.121525E+09       0.0%    100.0%      0.0%
 matmuls inhomo. stacks                      3914     100.0%      0.0%      0.0%
 matmuls total                          338828458       0.0%    100.0%      0.0%
 number of processed stacks               9640234       0.0%    100.0%      0.0%
 average stack size                                     1.0      35.2       0.0
 marketing flops                    16.988275E+12
 -------------------------------------------------------------------------------
 # multiplications                           5125
 max memory usage/rank             348.016640E+06
 # max total images/rank                        2
 # max 3D layers                                1
 # MPI messages exchanged                19024000
 MPI messages size (bytes):
  total size                         1.907800E+12
  min size                           0.000000E+00
  max size                         692.224000E+03
  average size                     100.283844E+03
 MPI breakdown and total messages size (bytes):
             size <=      128             5851776                   142880
       128 < size <=     8192             1093152               7688646080
      8192 < size <=    32768             3948128              89747070944
     32768 < size <=   131072             4375424             334607736832
    131072 < size <=  4194304             3755520            1475784560640
   4194304 < size <= 16777216                   0                        0
  16777216 < size                               0                        0
 -------------------------------------------------------------------------------

 *** WARNING in dbcsr_mm.F:301 :: Using a non-square number of MPI ranks ***
 *** might lead to poor performance. Used ranks: 128 Suggested: 121 256  ***

 -------------------------------------------------------------------------------
 -                                                                             -
 -                      DBCSR MESSAGE PASSING PERFORMANCE                      -
 -                                                                             -
 -------------------------------------------------------------------------------
 ROUTINE             CALLS      AVE VOLUME [Bytes]
 MP_Bcast               50                     12.
 MP_Allreduce        26830                     25.
 MP_Alltoall         18317                  29157.
 MP_ISend           322840                  49750.
 MP_IRecv           322316                  49260.
 -------------------------------------------------------------------------------

 -------------------------------------------------------------------------------
 -                                                                             -
 -                                DBM STATISTICS                               -
 -                                                                             -
 -------------------------------------------------------------------------------
    M  x    N  x    K                                          COUNT     PERCENT
 -------------------------------------------------------------------------------

 -------------------------------------------------------------------------------
 -                                                                             -
 -                                GRID STATISTICS                              -
 -                                                                             -
 -------------------------------------------------------------------------------
 LP    KERNEL             BACKEND                              COUNT     PERCENT
 5     collocate ortho    CPU                               23253316      25.46%
 5     integrate ortho    CPU                               22939082      25.11%
 6     collocate ortho    CPU                               11861016      12.99%
 6     integrate ortho    CPU                               11700732      12.81%
 4     collocate ortho    CPU                               10555360      11.56%
 4     integrate ortho    CPU                               10412720      11.40%
 0     integrate general  CPU                                 393216       0.43%
 0     collocate general  CPU                                 221184       0.24%
 2     collocate ortho    CPU                                   2560       0.00%
 3     collocate ortho    CPU                                   1536       0.00%
 -------------------------------------------------------------------------------

 MEMORY| Estimated peak process memory [MiB]                                 332

 -------------------------------------------------------------------------------
 ----                             MULTIGRID INFO                            ----
 -------------------------------------------------------------------------------
 count for grid        1:        1286935          cutoff [a.u.]          300.00
 count for grid        2:         981058          cutoff [a.u.]          100.00
 count for grid        3:         794148          cutoff [a.u.]           33.33
 count for grid        4:         536815          cutoff [a.u.]           11.11
 total gridlevel count  :        3598956

 -------------------------------------------------------------------------------
 -                                                                             -
 -                         MESSAGE PASSING PERFORMANCE                         -
 -                                                                             -
 -------------------------------------------------------------------------------

 ROUTINE             CALLS      AVE VOLUME [Bytes]
 MP_Group                4
 MP_Bcast             8817                  18194.
 MP_Allreduce        23453                    447.
 MP_Sync               866
 MP_Alltoall          3048                2274422.
 MP_SendRecv         38608                  11544.
 MP_ISendRecv        37084                  11544.
 MP_Wait             55068
 MP_comm_split         266
 MP_ISend            32600                  77914.
 MP_IRecv            32540                  78055.
 MP_Write_All            6                 355816.
 -------------------------------------------------------------------------------


 -------------------------------------------------------------------------------
 -                                                                             -
 -                           R E F E R E N C E S                               -
 -                                                                             -
 -------------------------------------------------------------------------------
 
 CP2K version 2024.3, the CP2K developers group (2024).
 CP2K is freely available from https://www.cp2k.org/ .
 
 T. D. Kuehne, M. Iannuzzi, M. Del Ben, V. V. Rybkin, P. Seewald, F. Stein, T. 
 Laino, R. Z. Khaliullin, O. Schuett, F. Schiffmann, D. Golze, J. Wilhelm, S. 
 Chulkov, M. H. Bani-Hashemian, V. Weber, U. Borstnik, M. Taillefumier, A. S. 
 Jakobovits, A. Lazzaro, H. Pabst, T. Mueller, R. Schade, M. Guidon, S. 
 Andermatt, N. Holmberg, G. K. Schenter, A. Hehn, A. Bussy, F. Belleflamme, G. 
 Tabacchi, A. Gloess, M. Lass, I. Bethune, C. J. Mundy, C. Plessl, M. Watkins, 
 J. VandeVondele, M. Krack, J. Hutter.
 J. Chem. Phys. 152, 194103 (2020).
 CP2K: An electronic structure and molecular dynamics software package - 
 Quickstep: Efficient and accurate electronic structure calculations.
 https://doi.org/10.1063/5.0007045

 O. Schuett, P. Messmer, J. Hutter, J. VandeVondele.
 Electronic Structure Calculations on Graphics Processing Units, 173-190 (2016).
 GPU-Accelerated Sparse Matrix-Matrix Multiplication for Linear Scaling Density 
 Functional Theory.
 https://doi.org/10.1002/9781118670712.ch8

 A. Heinecke, G. Henry, M. Hutchinson, H. Pabst.
 Proceedings of Intl. Supercomputing Conference, 981-991 (2016).
 LIBXSMM: Accelerating Small Matrix Multiplications by Runtime Code Generation.
 https://doi.org/10.1109/SC.2016.83

 J. Hutter, M. Iannuzzi, F. Schiffmann, J. VandeVondele.
 WIREs Comput Mol Sci. 4, 15-25 (2014).
 CP2K: atomistic simulations of condensed matter systems.
 https://doi.org/10.1002/wcms.1159

 U. Borstnik, J. VandeVondele, V. Weber, J. Hutter.
 Parallel Comput. 40, 47-58 (2014).
 Sparse matrix multiplication: The distributed block-compressed sparse row 
 library.
 https://doi.org/10.1016/j.parco.2014.03.012

 A. Marek, V. Blum, R. Johanni, V. Havu, B. Lang, T. Auckenthaler, A. Heinecke, 
 H. Bungartz, H. Lederer.
 J. Phys. Condens. Matter 26, 213201 (2014).
 The ELPA library: scalable parallel eigenvalue solutions for electronic 
 structure theory and computational science.
 https://doi.org/10.1088/0953-8984/26/21/213201

 J. VandeVondele, J. Hutter.
 J. Chem. Phys. 127, 114105 (2007).
 Gaussian basis sets for accurate calculations on molecular systems in gas and 
 condensed phases.
 https://doi.org/10.1063/1.2770708

 J. VandeVondele, M. Krack, F. Mohamed, M. Parrinello, T. Chassaing, J. Hutter.
 Comput. Phys. Commun. 167, 103-128 (2005).
 QUICKSTEP: Fast and accurate density functional calculations using a mixed 
 Gaussian and plane waves approach.
 https://doi.org/10.1016/j.cpc.2004.12.014

 M. Krack.
 Theor. Chem. Acc. 114, 145-152 (2005).
 Pseudopotentials for H to Kr optimized for gradient-corrected 
 exchange-correlation functionals.
 https://doi.org/10.1007/s00214-005-0655-y

 M. Frigo, S. G. Johnson.
 Proc. IEEE 93, 216-231 (2005).
 The design and implementation of FFTW3.
 https://doi.org/10.1109/JPROC.2004.840301

 J. VandeVondele, J. Hutter.
 J. Chem. Phys. 118, 4365-4369 (2003).
 An efficient orbital transformation method for electronic structure 
 calculations.
 https://doi.org/10.1063/1.1543154

 C. Hartwigsen, S. Goedecker, J. Hutter.
 Phys. Rev. B 58, 3641-3662 (1998).
 Relativistic separable dual-space Gaussian pseudopotentials from H to Rn.
 https://doi.org/10.1103/PhysRevB.58.3641

 S. L. Dudarev, G. A. Botton, S. Y. Savrasov, C. J. Humphreys, A. P. Sutton.
 Phys. Rev. B 57, 1505-1509 (1998).
 Electron-energy-loss spectra and the structural stability of nickel oxide: An 
 LSDA+U study.
 https://doi.org/10.1103/PhysRevB.57.1505

 G. Lippert, J. Hutter, M. Parrinello.
 Mol. Phys. 92, 477-487 (1997).
 A hybrid Gaussian and plane wave density functional scheme.
 https://doi.org/10.1080/002689797170220

 S. L. Dudarev, D. N. Manh, A. P. Sutton.
 Philos. Mag. B 75, 613-628 (1997).
 Effect of Mott-Hubbard correlations on the electronic structure and structural 
 stability of uranium dioxide.
 https://doi.org/10.1080/13642819708202343

 S. Goedecker, M. Teter, J. Hutter.
 Phys. Rev. B 54, 1703-1710 (1996).
 Separable dual-space Gaussian pseudopotentials.
 https://doi.org/10.1103/PhysRevB.54.1703

 J. P. Perdew, K. Burke, M. Ernzerhof.
 Phys. Rev. Lett. 77, 3865-3868 (1996).
 Generalized gradient approximation made simple.
 https://doi.org/10.1103/PhysRevLett.77.3865


 -------------------------------------------------------------------------------
 -                                                                             -
 -                                T I M I N G                                  -
 -                                                                             -
 -------------------------------------------------------------------------------
 SUBROUTINE                       CALLS  ASD         SELF TIME        TOTAL TIME
                                MAXIMUM       AVERAGE  MAXIMUM  AVERAGE  MAXIMUM
 CP2K                                 1  1.0    0.079    0.091  119.384  119.389
 qs_energies                          1  2.0    0.006    0.009  118.794  118.799
 scf_env_do_scf                       1  3.0    0.004    0.007  107.824  107.826
 scf_env_do_scf_inner_loop           73  4.0    0.007    0.019  104.781  104.844
 qs_ks_update_qs_env                 75  5.0    0.001    0.002   51.295   51.427
 rebuild_ks_matrix                   73  6.0    0.002    0.003   51.192   51.324
 qs_ks_build_kohn_sham_matrix        73  7.0    0.019    0.023   51.190   51.323
 sum_up_and_integrate                73  8.0    0.005    0.008   32.022   32.032
 integrate_v_rspace                 146  9.0    0.006    0.009   31.931   31.975
 qs_rho_update_rho_low               74  5.0    0.001    0.002   30.432   30.442
 calculate_rho_elec                 148  6.0    0.055    0.063   30.431   30.441
 dbcsr_multiply_generic            5125  9.3    0.189    0.198   24.731   25.350
 qs_scf_new_mos                      73  5.0    0.000    0.001   24.701   24.886
 qs_scf_loop_do_ot                   73  6.0    0.001    0.001   24.701   24.885
 grid_integrate_task_list           146 10.0   23.315   24.139   23.315   24.139
 ot_scf_mini                         73  7.0    0.003    0.005   23.106   23.238
 grid_collocate_task_list           148  7.0   21.836   22.573   21.836   22.573
 multiply_cannon                   5125 10.3    0.775    0.823   16.476   18.975
 fft_wrap_pw1pw2                   2440 10.3    0.048    0.062   16.083   18.101
 fft_wrap_pw1pw2_300               1546 11.8    0.609    0.678   14.935   16.956
 multiply_cannon_loop              5125 11.3    0.365    0.381   14.356   16.728
 qs_vxc_create                       73  8.0    0.002    0.003   15.349   15.462
 xc_vxc_pw_create                    73  9.0    0.280    0.356   15.347   15.461
 fft3d_ps                          2440 12.3    4.807    5.363   12.655   15.003
 ot_mini                            207  6.7    0.006    0.008   12.825   12.994
 xc_pw_derive                       876 11.0    0.008    0.009   10.377   12.184
 multiply_cannon_multrec          82000 12.3    6.836   10.737    6.853   10.756
 mp_waitall_1                    614676 13.3    7.106   10.501    7.106   10.501
 mp_alltoall_z22v                  2440 14.3    6.511   10.223    6.511   10.223
 qs_ot_get_p                        288  7.0    0.004    0.004    9.557    9.880
 qs_ot_get_derivative               214  8.4    0.001    0.002    9.275    9.373
 scf_post_calculation_gpw             1  3.0    0.004    0.007    9.261    9.266
 multiply_cannon_metrocomm3       82000 12.3    0.199    0.206    4.914    8.874
 density_rs2pw                      148  7.0    0.011    0.012    7.788    8.623
 xc_rho_set_and_dset_create          73 10.0    0.251    0.400    7.956    8.408
 xc_pw_divergence                   146 10.0    0.003    0.004    6.866    8.276
 potential_pw2rs                    146 10.0    0.012    0.014    7.407    7.472
 qs_ot_p2m_diag                     262  8.0    0.060    0.081    7.267    7.314
 cp_dbcsr_syevd                     262  9.0    0.078    0.086    6.185    6.190
 yz_to_x                            889 13.4    0.379    0.538    3.735    6.181
 qs_ot_get_derivative_diag          192  9.4    0.004    0.005    6.008    6.105
 cp_fm_diag_elpa                    138 10.9    0.001    0.003    5.753    5.773
 cp_fm_redistribute_end             266 11.0    2.911    5.739    2.930    5.751
 cp_fm_diag_elpa_base               138 11.9    2.747    5.506    2.762    5.545
 transfer_pw2rs                     586 11.0    0.008    0.009    5.444    5.467
 transfer_rs2pw                     610  7.9    0.011    0.014    4.670    5.408
 make_m2s                         10250 10.3    0.141    0.154    5.043    5.297
 make_lumo_gpw                        1  4.0    0.001    0.002    5.218    5.219
 ot_eigensolver                       2  5.0    0.003    0.004    5.199    5.200
 mp_waitany                       14392 11.4    3.906    4.861    3.906    4.861
 x_to_yz                            955 13.7    0.629    0.805    3.742    4.772
 make_images                      10250 11.3    0.274    0.297    4.075    4.309
 transfer_pw2rs_300                 148 11.9    1.864    1.975    3.773    3.976
 mp_sum_l                         24848 10.2    2.202    3.891    2.202    3.891
 transfer_rs2pw_300                 154  8.9    1.118    1.451    2.926    3.644
 apply_preconditioner_dbcsr         222  9.4    0.001    0.001    2.815    3.154
 apply_single                       222 10.4    0.001    0.001    2.815    3.152
 write_available_results              1  4.0    0.002    0.004    3.117    3.120
 write_mo_free_results                1  5.0    0.144    0.151    3.076    3.081
 init_scf_loop                        2  4.0    0.003    0.004    3.004    3.009
 ot_diis_step                        73  9.0    0.014    0.016    2.945    2.947
 mp_irecv_dv                     171333 13.2    0.836    2.791    0.836    2.791
 multiply_cannon_metrocomm4       76875 12.3    0.196    0.201    0.935    2.759
 mp_alltoall_d11v                  4047 11.7    1.951    2.754    1.951    2.754
 xc_functional_eval                  73 11.0    0.001    0.002    2.341    2.700
 pbe_lsd_eval                        73 12.0    2.340    2.699    2.340    2.699
 -------------------------------------------------------------------------------

 The number of warnings for this run is : 3
 
 -------------------------------------------------------------------------------
  **** **** ******  **  PROGRAM ENDED AT                 2025-06-17 07:54:02.315
 ***** ** ***  *** **   PROGRAM RAN ON                                 nid003185
 **    ****   ******    PROGRAM RAN BY                                    cahart
 ***** **    ** ** **   PROGRAM PROCESS ID                                 50177
  **** **  *******  **  PROGRAM STOPPED IN /mnt/lustre/a2fs-work2/work/e05/e05/c
                                           ahart/postdoc2/work/group/tio2/anatas
                                           e/cell-441/geo-opt/mp-390/neutral-fro
                                           m-hole/pbe-u-o/u-7.0
