     192
 i =        1, E =     -5781.2817960965
Ti        -0.0039740289        0.0146162197       -0.0061222297
Ti        -0.0079606034       -0.0034405029       -0.0161017284
Ti        -0.0064523941        0.0016732509       -0.0149976803
Ti        -0.0066236257        0.0091164775        0.0133692783
Ti        -0.0052012078       -0.0064104503        0.0142616796
Ti         0.0033342812        0.0029018371        0.0029112968
Ti         0.0038220011        0.0031654180       -0.0261469503
Ti         0.0000682218        0.0068711492        0.0046070529
Ti        -0.0002791371       -0.0128859903       -0.0056343398
Ti        -0.0117758621       -0.0033164660        0.0003896560
Ti        -0.0145259085        0.0024415896        0.0002607556
Ti        -0.0047397142       -0.0073170031       -0.0009205964
Ti        -0.0003081830       -0.0052714956       -0.0053393393
Ti         0.0144126562        0.0050765027        0.0230052387
Ti        -0.0142932687        0.0082897369        0.0085607594
Ti         0.0030242238        0.0209016365       -0.0136272408
Ti        -0.0016606913        0.0066243211       -0.0184705431
Ti        -0.0016464080        0.0001496399       -0.0100486185
Ti         0.0067815545        0.0036585248        0.0047097932
Ti         0.0100291805        0.0071178779       -0.0170214665
Ti        -0.0092537656        0.0068883734       -0.0100180287
Ti        -0.0032880754       -0.0108083405       -0.0313775813
Ti        -0.0018829259       -0.0121341516       -0.0074487857
Ti        -0.0037408405        0.0081541457        0.0005032547
Ti        -0.0012598846       -0.0058184706        0.0098199664
Ti         0.0000452510       -0.0063994350        0.0128433764
Ti        -0.0000383422        0.0013900077        0.0089173025
Ti         0.0143164730        0.0074636259        0.0281229020
Ti         0.0151664848        0.0004959797        0.0057826224
Ti        -0.0106518345        0.0201554593       -0.0079173478
Ti         0.0063488717       -0.0074615515        0.0015472543
Ti        -0.0017960350       -0.0034463196        0.0117747690
Ti         0.0046997426        0.0025089413       -0.0118647660
Ti         0.0054612816        0.0173385690        0.0008723273
Ti         0.0153171006       -0.0089229514       -0.0085322651
Ti         0.0008892855        0.0029681126       -0.0117963404
Ti         0.0008448505        0.0019758632       -0.0018601563
Ti        -0.0033361846        0.0007171129        0.0007962269
Ti        -0.0054598875       -0.0024642584       -0.0160213416
Ti        -0.0108580897        0.0098085234        0.0008754605
Ti        -0.0093671489       -0.0069664934       -0.0059536355
Ti         0.0038684400        0.0134520704        0.0103656371
Ti         0.0079460733        0.0022687834        0.0002712796
Ti         0.0044864960        0.0076552400        0.0059081583
Ti         0.0018881381        0.0101286233       -0.0177815952
Ti         0.0005650359        0.0074031112       -0.0025245264
Ti         0.0026800523        0.0063125362       -0.0024099197
Ti        -0.0075741568        0.0281019439        0.0048133691
Ti        -0.0070864821        0.0001692858        0.0201334915
Ti        -0.0118089574        0.0056541340        0.0005171786
Ti        -0.0032976918        0.0017586709        0.0102865658
Ti         0.0092270369       -0.0000199323       -0.0146603615
Ti         0.0103690272        0.0054282368       -0.0063621680
Ti         0.0060099037       -0.0083532508        0.0055521990
Ti        -0.0124412164        0.0052199664        0.0018059887
Ti         0.0026730433        0.0083869716       -0.0067498094
Ti        -0.0043685650       -0.0021458385       -0.0020317973
Ti         0.0098352372       -0.0073385877       -0.0030279484
Ti         0.0101605997       -0.0026635380        0.0036429523
Ti        -0.0073103433       -0.0083523718        0.0096134378
Ti         0.0015144969        0.0026816396       -0.0045737464
Ti         0.0001950979        0.0008180047        0.0063165786
Ti        -0.0013371384        0.0051253526        0.0043132217
Ti        -0.0111037010        0.0062895310        0.0061777186
O         0.0013136148        0.0017092393       -0.0078557460
O         0.0099592109       -0.0020669391        0.0157867403
O         0.0161992357       -0.0034827835        0.0038246256
O         0.0036503290       -0.0032632412       -0.0048710062
O         0.0009043277        0.0001508558       -0.0063160793
O         0.0056370968       -0.0019231174       -0.0050407915
O         0.0040833718       -0.0115158673       -0.0007179658
O         0.0164837240       -0.0009586611        0.0047851744
O        -0.0030225497       -0.0038320183       -0.0055431809
O        -0.0006085909       -0.0174448003        0.0021763485
O        -0.0130290819       -0.0004766670        0.0170552358
O        -0.0187495877        0.0045861686       -0.0033165779
O        -0.0052016509        0.0105829378        0.0059741058
O         0.0013360829       -0.0041057091        0.0016491686
O         0.0015343782        0.0060266165       -0.0029586894
O         0.0076887545        0.0008138994        0.0024276018
O         0.0007383728       -0.0037053313       -0.0050688296
O        -0.0010398422        0.0030007436       -0.0076782882
O         0.0081273857        0.0088386569       -0.0079142931
O         0.0061081297        0.0009826912        0.0172519083
O        -0.0042272972        0.0096166185        0.0176943536
O        -0.0017798688       -0.0086599361        0.0032649844
O        -0.0062259600       -0.0102219627       -0.0003185382
O        -0.0013702453        0.0150110613        0.0036416098
O        -0.0004389527       -0.0050567531        0.0006641933
O        -0.0094073852       -0.0018204024        0.0189441186
O         0.0176037232        0.0042786762        0.0051263466
O         0.0029694204       -0.0019269893       -0.0054558102
O         0.0085749274       -0.0003355953       -0.0059434634
O        -0.0030910375       -0.0042627234       -0.0016241889
O         0.0040506417       -0.0058794556       -0.0097798931
O        -0.0030235855        0.0026868092       -0.0226852900
O        -0.0006126287       -0.0122392505       -0.0008015986
O         0.0054073237        0.0034180142       -0.0039514299
O         0.0112112401       -0.0008571222       -0.0084459735
O        -0.0136054218        0.0003820937        0.0036420352
O         0.0058248128        0.0102235292        0.0056549812
O         0.0005365245       -0.0050726503        0.0062230956
O        -0.0073620613       -0.0059997073       -0.0082627617
O        -0.0249537120        0.0025013448        0.0103832485
O        -0.0029643843       -0.0151455002        0.0073483639
O        -0.0034689807        0.0145027564       -0.0042606883
O         0.0066257105       -0.0020764166        0.0009039575
O         0.0034660208       -0.0009223720        0.0054901898
O        -0.0136343339       -0.0010992678        0.0057893869
O         0.0071789431        0.0054106201       -0.0106234829
O        -0.0079179849       -0.0006771427       -0.0069838065
O         0.0040358804       -0.0008484511        0.0010263465
O        -0.0077139097       -0.0079306986       -0.0062878881
O         0.0051865908       -0.0182812689        0.0041367912
O         0.0042226407       -0.0005037995        0.0034307688
O         0.0015900323       -0.0007358968       -0.0041023893
O        -0.0033269045       -0.0134882717        0.0007326838
O         0.0009864476        0.0006540296       -0.0103468501
O        -0.0152366941       -0.0048202664        0.0042092189
O         0.0014575756       -0.0003545297       -0.0012852346
O         0.0028405725        0.0118643813       -0.0056703567
O         0.0094689584       -0.0031926463        0.0016293947
O         0.0117038957        0.0002535884        0.0004594191
O         0.0036253826       -0.0042096425        0.0011578923
O        -0.0016825720        0.0003132208        0.0069108709
O        -0.0084316251       -0.0065498241        0.0065298961
O         0.0079693342        0.0010585980       -0.0004365893
O        -0.0098215147        0.0000348594       -0.0015521375
O        -0.0024405868        0.0054982686        0.0043073049
O         0.0113193184       -0.0195091711        0.0076201884
O         0.0009934438       -0.0009429315        0.0053007692
O        -0.0062302724        0.0015522102        0.0104555107
O         0.0048969051       -0.0042287832       -0.0015646703
O        -0.0075642581       -0.0049828140       -0.0033387190
O         0.0077570243       -0.0002048929       -0.0015052280
O         0.0055152083        0.0061351924        0.0127951595
O         0.0015605223       -0.0328753777        0.0036293367
O         0.0029589521       -0.0003481606        0.0011755320
O        -0.0026322283        0.0076508784       -0.0021794467
O         0.0058037432        0.0023454330        0.0024158656
O        -0.0028173742       -0.0130919407        0.0103349048
O         0.0005353231        0.0042302051       -0.0061827443
O         0.0211207428       -0.0038478262        0.0054965437
O        -0.0122793271       -0.0021432208        0.0030322252
O        -0.0024874340       -0.0108132903        0.0088593664
O        -0.0003990397       -0.0082938244        0.0097656082
O         0.0023525754       -0.0007366769        0.0037765141
O        -0.0064595077       -0.0015388003       -0.0091070609
O         0.0018121418       -0.0047805272       -0.0329037960
O         0.0001122697       -0.0040298036        0.0030213447
O        -0.0185976186       -0.0007789344       -0.0011396041
O         0.0065632696       -0.0024244925        0.0025745766
O         0.0036885658       -0.0029976712        0.0118407507
O        -0.0007421837       -0.0013704843        0.0050813609
O         0.0037645235        0.0010101748       -0.0023140088
O         0.0083573527        0.0022378198       -0.0065832228
O        -0.0116971470       -0.0022829090       -0.0026468114
O         0.0029379752        0.0047183145       -0.0082001944
O         0.0069895575        0.0041967907        0.0058519833
O        -0.0096848880       -0.0088258772       -0.0101241399
O         0.0037428031        0.0191314623       -0.0039597196
O         0.0081681178        0.0034187857        0.0077593608
O        -0.0013940491        0.0086510818       -0.0104235821
O         0.0002654189        0.0096040700        0.0002835502
O         0.0049673677        0.0003061547       -0.0003978253
O        -0.0082131536       -0.0034628811       -0.0073306871
O        -0.0026823863       -0.0071025176        0.0025667977
O         0.0008531610        0.0014657723        0.0032395296
O        -0.0037896397        0.0095383714       -0.0018330964
O        -0.0026903910       -0.0062644965        0.0044903713
O        -0.0076576900        0.0026807592        0.0050018701
O        -0.0034375317       -0.0055593513        0.0079686318
O        -0.0024491558        0.0054256440        0.0011403293
O         0.0016326646        0.0129689738        0.0032169656
O         0.0046188781        0.0029832034        0.0052448017
O         0.0233355977       -0.0021080613        0.0110602186
O        -0.0020735831        0.0044935794       -0.0012130305
O        -0.0123021722       -0.0018916968       -0.0000957566
O         0.0065280476       -0.0036996308       -0.0115533565
O        -0.0030730665       -0.0023103351        0.0081412132
O        -0.0071987489        0.0096102749        0.0002823663
O         0.0025331720        0.0003010340        0.0059253784
O         0.0071043777       -0.0014670757        0.0019768045
O        -0.0020203873        0.0070484601        0.0016690351
O        -0.0061953660       -0.0107560708        0.0038032983
O         0.0011069945       -0.0239793045       -0.0018309066
O         0.0229799426        0.0021241489        0.0016187170
O        -0.0078577526        0.0053961224       -0.0076765910
O         0.0041041724       -0.0037574416       -0.0067861379
O         0.0022435339       -0.0106991443        0.0017004218
O        -0.0214239606        0.0014853794       -0.0060305568
O        -0.0023645896       -0.0044564933        0.0037496162
     192
 i =        2, E =     -5781.3745994848
Ti        -0.0022944366        0.0038015479        0.0025951263
Ti         0.0012396893       -0.0038161422       -0.0045733470
Ti        -0.0036511676       -0.0016500246       -0.0113884966
Ti         0.0010788039        0.0169560326        0.0045778118
Ti         0.0025225275       -0.0034686285        0.0029354820
Ti        -0.0037893650        0.0061445460       -0.0048714196
Ti        -0.0005699859        0.0042120574       -0.0062881653
Ti         0.0002712026        0.0072666604        0.0062576689
Ti        -0.0051281099       -0.0085812810       -0.0026169154
Ti        -0.0009901390       -0.0016862306       -0.0034549442
Ti        -0.0075250307        0.0000040301        0.0023681599
Ti         0.0019933918        0.0011104921       -0.0037622614
Ti         0.0046697863       -0.0040075005       -0.0038467331
Ti         0.0030039479        0.0069562312        0.0151466104
Ti        -0.0103540094        0.0080000911        0.0023323847
Ti        -0.0024231638        0.0142947246       -0.0103451253
Ti         0.0003592929        0.0036368606       -0.0106485485
Ti        -0.0018842090        0.0054268773       -0.0054223766
Ti         0.0092667383        0.0048924487        0.0031702676
Ti         0.0010132269       -0.0032270749       -0.0113451484
Ti        -0.0033210446        0.0076492183       -0.0111231438
Ti        -0.0049939852       -0.0096473980       -0.0107265800
Ti         0.0041251470       -0.0014543936        0.0042427009
Ti        -0.0079336066        0.0087334125       -0.0012217418
Ti        -0.0059531193       -0.0022662557        0.0067800282
Ti        -0.0071945784       -0.0023328046        0.0038366219
Ti         0.0012875906        0.0059674634       -0.0020105995
Ti         0.0002195950        0.0093403072        0.0066389294
Ti         0.0061656951        0.0052512350        0.0063654716
Ti        -0.0011712567        0.0168148190       -0.0041015436
Ti         0.0015347573       -0.0003059328        0.0027071778
Ti        -0.0064537686       -0.0019839519        0.0059883186
Ti         0.0120773625       -0.0005581977       -0.0089822049
Ti        -0.0052525816        0.0112094950       -0.0053480142
Ti         0.0073503795       -0.0038289265       -0.0040369704
Ti         0.0149428973       -0.0067163436       -0.0098058420
Ti         0.0014507316        0.0005429497        0.0068306688
Ti        -0.0021205560        0.0003240646        0.0033403016
Ti        -0.0068910785        0.0060710601       -0.0071451883
Ti        -0.0035778659        0.0096437792       -0.0024324693
Ti        -0.0096057331        0.0007131071        0.0027155536
Ti         0.0049617881        0.0074996022        0.0055803564
Ti         0.0103515743       -0.0009561190        0.0034381535
Ti        -0.0033908438        0.0038883636        0.0028278278
Ti        -0.0017201864       -0.0041882392       -0.0114627499
Ti         0.0000408202       -0.0002502719       -0.0025638380
Ti         0.0113779754        0.0026337217       -0.0072408055
Ti         0.0014318834        0.0130007364       -0.0009547500
Ti        -0.0021921776        0.0066108160        0.0160798988
Ti        -0.0076711706        0.0042000285        0.0029724683
Ti        -0.0078382523        0.0044727994        0.0062100684
Ti        -0.0030077707       -0.0054916211       -0.0010011863
Ti         0.0076520685        0.0022071708       -0.0051469843
Ti         0.0057231759       -0.0083526081       -0.0017843738
Ti        -0.0033503630       -0.0033422267        0.0036861547
Ti         0.0067048540        0.0079409736       -0.0045789698
Ti        -0.0076489135        0.0006086771       -0.0030873617
Ti         0.0088106146       -0.0104899333       -0.0000620735
Ti         0.0036544892        0.0056404656        0.0043631829
Ti        -0.0039174418       -0.0036737020        0.0049752961
Ti        -0.0024195064       -0.0021822648        0.0009848728
Ti        -0.0038692774       -0.0096384479        0.0003523351
Ti         0.0048437063        0.0027477934        0.0054026249
Ti        -0.0090798292        0.0066297832        0.0009208297
O        -0.0013079278        0.0117291208       -0.0008145156
O         0.0014451114        0.0011006488        0.0056806435
O         0.0027107007       -0.0034283229        0.0067046384
O         0.0075095087        0.0013817080        0.0007058229
O        -0.0014113293       -0.0035410781       -0.0046416969
O         0.0001495763       -0.0071268440        0.0039612104
O         0.0022221254       -0.0046960349       -0.0001186591
O         0.0075818884       -0.0012817578       -0.0017169530
O        -0.0019048238       -0.0053001041       -0.0038906135
O        -0.0023932291       -0.0122488890       -0.0002547194
O        -0.0059414563       -0.0006975553        0.0092792867
O        -0.0041492577       -0.0026755385       -0.0019112243
O        -0.0017098426        0.0008847773        0.0059857652
O        -0.0007418640       -0.0084459001       -0.0025465185
O         0.0053898269        0.0000214767       -0.0004245193
O         0.0012992522       -0.0030102692        0.0019577354
O         0.0036152939       -0.0048716245        0.0003863252
O         0.0046559724       -0.0021126014       -0.0049456182
O        -0.0013275782        0.0050385438        0.0000454859
O         0.0075198028        0.0037139834        0.0079162253
O         0.0002411166        0.0053336221        0.0084313173
O        -0.0024874413       -0.0061429367        0.0062658396
O        -0.0013501224       -0.0041913207       -0.0001648179
O         0.0000264164        0.0073209844        0.0013105727
O        -0.0041021643       -0.0024322317        0.0052536655
O        -0.0032546342        0.0023799727        0.0071551192
O         0.0066980364       -0.0025561254        0.0001842201
O         0.0020298458       -0.0008874579        0.0000331417
O         0.0007848041        0.0041576505       -0.0077182528
O        -0.0068077383       -0.0005633671       -0.0008710202
O         0.0030763653       -0.0019855705       -0.0076529369
O         0.0013190010        0.0008013338       -0.0056855529
O         0.0011468575       -0.0148116221       -0.0011731530
O         0.0002395746        0.0031712057       -0.0026166224
O         0.0089152641        0.0000526667       -0.0042724840
O        -0.0002803410       -0.0005297229        0.0016076911
O         0.0015643776       -0.0024746833        0.0025462496
O        -0.0004416023        0.0011907619        0.0050376133
O        -0.0091958222       -0.0006413768        0.0000149775
O        -0.0069810017        0.0001949448        0.0036158655
O        -0.0037612902       -0.0086491424        0.0076995188
O        -0.0036149029       -0.0029340378       -0.0036615936
O         0.0012249398        0.0055070320        0.0008958581
O        -0.0004525617       -0.0146520113        0.0021327304
O        -0.0042514207        0.0023827142       -0.0030042234
O        -0.0015222480       -0.0015070358        0.0004667600
O        -0.0024133315       -0.0009880939       -0.0061979265
O         0.0104368420       -0.0015883994        0.0018278570
O        -0.0039846846       -0.0152716480       -0.0048435937
O         0.0040879637       -0.0045659115       -0.0077822365
O         0.0028756859       -0.0006665633       -0.0053220081
O         0.0023425675       -0.0029478774       -0.0018819525
O         0.0016223472       -0.0159211297       -0.0007206922
O         0.0019149727       -0.0001013014       -0.0042860703
O        -0.0099123196       -0.0027736704        0.0034267491
O        -0.0047724591       -0.0003431978        0.0064255388
O         0.0026016994        0.0039545511        0.0042093900
O        -0.0015925021       -0.0000952743        0.0027748872
O         0.0051975270       -0.0047543682        0.0062216208
O        -0.0067693958       -0.0028344354       -0.0001325416
O         0.0025554077       -0.0028072556       -0.0035356249
O        -0.0047665102        0.0074376643       -0.0044751051
O        -0.0113556159       -0.0055767796        0.0042902670
O        -0.0079660905       -0.0037590065        0.0020923871
O        -0.0038700496        0.0033033688        0.0071107173
O         0.0057888569        0.0038129683       -0.0006494718
O        -0.0087655004        0.0019583520        0.0048146568
O         0.0025658916       -0.0002696532        0.0000384834
O        -0.0002154965       -0.0097708335        0.0031669731
O        -0.0038664378        0.0057782466       -0.0049166665
O         0.0045199341        0.0008494474       -0.0026759949
O        -0.0082179673       -0.0003668509        0.0038404820
O         0.0047708524       -0.0046130164        0.0016144824
O         0.0039518933        0.0033475833       -0.0032345881
O        -0.0062103341        0.0030776443       -0.0000846966
O         0.0009875589        0.0032899078        0.0049432404
O        -0.0029700382       -0.0089221326        0.0065587388
O        -0.0001980413       -0.0026567420        0.0027700438
O         0.0093540308       -0.0029158097        0.0004686838
O        -0.0078617018       -0.0017236046       -0.0014002446
O         0.0023962083       -0.0005867161        0.0031847443
O        -0.0016637098       -0.0104991015        0.0037790593
O        -0.0041634084        0.0025741754        0.0061272955
O        -0.0042468798        0.0004075936        0.0004816164
O         0.0012515364       -0.0003193676       -0.0194455772
O         0.0019172259       -0.0010751674        0.0033670091
O         0.0038060411        0.0029127250       -0.0029466813
O         0.0108158852        0.0000713723        0.0042687841
O        -0.0007327459        0.0053235106       -0.0054477800
O         0.0005507206        0.0010130882        0.0049885249
O        -0.0007995745        0.0045914349        0.0007755623
O         0.0004199093       -0.0113681906        0.0021947355
O         0.0020436317       -0.0033008785        0.0020548013
O         0.0071948458        0.0040609115       -0.0007916771
O         0.0027398777        0.0024741417        0.0016131683
O         0.0028710835       -0.0027223633       -0.0059633016
O        -0.0005630700        0.0109555664       -0.0054564924
O         0.0039165249       -0.0001512204        0.0017564355
O         0.0077218352        0.0013584268       -0.0076430798
O         0.0007985964        0.0003769628       -0.0023846916
O         0.0007667953       -0.0058456935       -0.0026105749
O        -0.0001885150       -0.0063226854       -0.0040623019
O         0.0091217922       -0.0030609051        0.0059495048
O         0.0017924451       -0.0031822417        0.0004440043
O        -0.0005487661       -0.0034219791       -0.0007574036
O        -0.0028569305       -0.0075144732       -0.0014419230
O        -0.0028887565        0.0055397467        0.0039846897
O        -0.0038229207       -0.0005540929        0.0023649208
O         0.0037321372       -0.0008231047        0.0034902177
O        -0.0001722228       -0.0008296481       -0.0015277306
O         0.0002607274        0.0012340135       -0.0014688788
O         0.0136978671       -0.0046313433       -0.0036647374
O        -0.0001748690        0.0028811015        0.0043815205
O        -0.0035173340       -0.0023046731        0.0012073658
O         0.0031892334        0.0001342543       -0.0000087464
O        -0.0062465945        0.0041384073        0.0066640475
O        -0.0009619358        0.0063995908        0.0017150763
O        -0.0041034423        0.0035617475       -0.0021696688
O         0.0029878695        0.0006701250       -0.0072473936
O        -0.0038208294        0.0102219924        0.0007486647
O        -0.0039659167        0.0029328831        0.0007011820
O        -0.0003509317       -0.0090681362       -0.0064901377
O         0.0104547336        0.0038393182        0.0014511500
O        -0.0011809745        0.0019084531        0.0014460269
O         0.0035797924        0.0001623010       -0.0033343508
O         0.0000964317       -0.0006932379        0.0011977535
O        -0.0081143106        0.0001240900       -0.0028858766
O         0.0000889917       -0.0003035941        0.0032963189
     192
 i =        3, E =     -5781.4120038574
Ti        -0.0022911555        0.0011319262        0.0024530836
Ti         0.0035970158       -0.0016061172       -0.0023073509
Ti        -0.0031819907       -0.0042628248       -0.0065090928
Ti         0.0004318613        0.0116498836        0.0008409872
Ti         0.0035943294        0.0013712039        0.0000252498
Ti        -0.0051040277        0.0040033173       -0.0037615942
Ti        -0.0034022228        0.0006921159       -0.0023156636
Ti         0.0001896397        0.0008921957        0.0035342494
Ti        -0.0042242253       -0.0029288935       -0.0014751343
Ti         0.0015652011       -0.0037823432       -0.0023533927
Ti        -0.0065278902       -0.0019523878       -0.0001798094
Ti         0.0018707833        0.0004900880       -0.0005534360
Ti         0.0057894533       -0.0057392866       -0.0035792970
Ti         0.0008211338        0.0064759688        0.0084792763
Ti        -0.0044740630        0.0013458011       -0.0017679968
Ti        -0.0014875271        0.0115349848       -0.0044036108
Ti        -0.0003035341        0.0016216361       -0.0043019252
Ti         0.0011512905        0.0053332750        0.0009637663
Ti         0.0084381359        0.0073048444       -0.0011670310
Ti         0.0026249268       -0.0050359977       -0.0057097859
Ti         0.0018447200        0.0000066710       -0.0065212580
Ti        -0.0044040313       -0.0075007368       -0.0030346868
Ti         0.0044429277        0.0023067893        0.0053276109
Ti        -0.0083612543        0.0068569167       -0.0023182470
Ti        -0.0042316776       -0.0010817522        0.0049053669
Ti        -0.0077592458        0.0001001598       -0.0006121034
Ti         0.0045765052        0.0032184240       -0.0011724814
Ti        -0.0011627940        0.0045650076        0.0007965770
Ti         0.0020483609        0.0069677270        0.0030287575
Ti         0.0026460785        0.0084910748        0.0045875557
Ti        -0.0011830798        0.0025924880        0.0027260445
Ti        -0.0051608959       -0.0001308442        0.0027554706
Ti         0.0081247437        0.0007329774       -0.0041529322
Ti        -0.0045932083        0.0035861055       -0.0027830232
Ti         0.0034640247       -0.0017579235       -0.0064545396
Ti         0.0145985476       -0.0059289727       -0.0059540693
Ti        -0.0001400422        0.0001178248        0.0027209216
Ti        -0.0034222530       -0.0000946462        0.0049931220
Ti        -0.0055655079        0.0040920537       -0.0039059518
Ti        -0.0023652078        0.0104266855       -0.0020987715
Ti        -0.0080083904        0.0021320026        0.0054540709
Ti         0.0034663010        0.0064694438        0.0005452511
Ti         0.0055834207        0.0019025402       -0.0048941109
Ti        -0.0011794977        0.0053987735        0.0015059758
Ti         0.0004921226       -0.0041263007       -0.0059670629
Ti        -0.0044094447       -0.0017789061       -0.0018901708
Ti         0.0081147880        0.0024548196       -0.0045999900
Ti         0.0028991231        0.0078416115       -0.0008698482
Ti        -0.0014718864        0.0073458991        0.0062945105
Ti        -0.0024965182        0.0030313691       -0.0005334725
Ti        -0.0039206627        0.0066982222        0.0038127114
Ti        -0.0054061790       -0.0048435844        0.0020253379
Ti         0.0024860706        0.0011807894       -0.0022154531
Ti         0.0019444139       -0.0034698549       -0.0012551723
Ti        -0.0003412260       -0.0028738984        0.0031808184
Ti         0.0025546699        0.0045228664       -0.0011654574
Ti        -0.0023985857        0.0011478450       -0.0014788793
Ti         0.0061125286       -0.0117555820        0.0001433617
Ti         0.0022466469        0.0049772156        0.0040391410
Ti        -0.0042322689       -0.0017042311        0.0026835970
Ti        -0.0036149446        0.0013344938        0.0041445605
Ti        -0.0022213332       -0.0096615870        0.0012778549
Ti         0.0036992446        0.0009338410        0.0020774755
Ti        -0.0046044820        0.0050355980       -0.0008941782
O        -0.0008273906        0.0029711199        0.0027363957
O         0.0029267509       -0.0026935666        0.0043660246
O        -0.0044792838        0.0003554416        0.0038770102
O         0.0018758045        0.0020343429        0.0014209518
O         0.0021078719        0.0001864001       -0.0028446729
O         0.0012734882       -0.0036733049        0.0028122773
O         0.0029855606       -0.0018229290        0.0035488463
O         0.0048121265        0.0005926616       -0.0006563005
O         0.0030085559       -0.0056355469       -0.0012360008
O        -0.0027489004       -0.0040898138       -0.0010516182
O         0.0016470717        0.0002066694        0.0029318665
O         0.0029472542       -0.0010100541       -0.0009698068
O        -0.0039277181       -0.0013277781        0.0026290800
O        -0.0020619286       -0.0023874534       -0.0029877019
O         0.0034997131       -0.0049408548        0.0008644690
O         0.0034892181       -0.0010923364        0.0015445664
O         0.0006245459        0.0013422366       -0.0006978181
O         0.0037127081       -0.0008903170       -0.0024393320
O        -0.0030237300        0.0012931337        0.0009315106
O         0.0042781713        0.0038055120        0.0029466526
O         0.0013938445        0.0011298127        0.0033727461
O         0.0036986750       -0.0021681538        0.0051650166