     192
 i =        1, E =     -5781.2817960965
Ti        -0.0631249803        0.0944399796        0.0653602273
Ti         1.8666118425        1.9235614475        4.8989703808
Ti         0.0469102474        2.0299456644        2.5304100397
Ti         1.8640006707       -0.0464285115        7.1729043295
Ti        -0.0335109202        3.8289591660       -0.0534021214
Ti         1.9496991090       13.1918942041        4.8336056361
Ti        11.2881912146        1.9808050726        2.4507407753
Ti         5.6072124720       -0.0900927864        7.2229395422
Ti         1.9052114663        3.8182327380        7.2355488150
Ti         0.0253573820       13.3466820536        2.4745011901
Ti         5.6779865212        1.8353919137        4.8274257501
Ti        11.3028761543        0.1153935198       -0.0447257108
Ti         3.6770347936        0.0967802778        0.0488979911
Ti        13.1229618627        1.7700884656        4.7046537804
Ti        13.2664561737       -0.0451260834        7.1547009048
Ti         3.7508852759        1.8028635548        2.5215883345
Ti         1.9715009284        5.6386515014        4.8510020544
Ti         0.0023747729       11.5717942852        0.0029454433
Ti        -0.0222078388        5.7232762572        2.4873199117
Ti         1.8992728966       11.3183892484        7.3610244311
Ti         0.0698647488        7.4979978327        0.0517468772
Ti         2.0398424268        9.5182332167        4.9043626690
Ti         7.4989059066        1.9567635273        2.3513225950
Ti         9.4688609614       -0.1310662573        7.2263147062
Ti         1.9467909539        7.5786720204        7.1610080052
Ti         0.1326739877        9.5811888068        2.4795585783
Ti         9.3285523906        1.8086070346        4.7676526487
Ti         7.4645406975       -0.0616152038       -0.0793435512
Ti         3.7295208692        3.7831272399       -0.0063882480
Ti        13.2368736260       13.1251201606        4.7427857596
Ti        11.3748602712        5.7264937625        2.3764992728
Ti         5.6786014084       11.3258093155        7.1525215424
Ti        13.1721686820        3.6799410410        7.2408473885
Ti         3.7727315541       13.1624532950        2.4441158315
Ti         5.6794519802        5.7200318786        4.8436394501
Ti        11.2227236661       11.3896936535        0.1077098850
Ti        11.2852364108       13.3344142048        2.3542746259
Ti         5.6583910025        3.7267742745        7.1291881396
Ti         3.8829115381       11.4219015243        0.0417817364
Ti        13.2873637747        5.5839363742        4.9023296592
Ti         5.7973975748       13.2084503286        4.8100708251
Ti        11.2683403818        3.7903950134       -0.0768961391
Ti        13.0946345900       11.3813456991        7.2645320449
Ti         3.7919182224        5.6097619248        2.3935061834
Ti         3.7989337697        7.5569192770        0.0456137852
Ti        13.3026912395        9.4208761845        4.8374661604
Ti         7.5204156251        5.6770209411        2.3895143728
Ti         9.4260297941       11.1426482104        7.1733263536
Ti        13.3043522719        7.5413674509        7.2323923400
Ti         3.8839405305        9.4434988810        2.3384670001
Ti         9.5208882533        5.5606965673        4.7066320713
Ti         7.5321653983       11.3435221108        0.0697792510
Ti        11.4044094805        9.4484912629        2.4127251815
Ti         5.6599774271        7.6063719200        7.2007138491
Ti         5.7788199765        9.4232437824        4.7426449784
Ti        11.3220171295        7.5739923451        0.0063805213
Ti         9.4274893411        3.6452518959        7.1666261692
Ti         7.5399924745       13.3079748311        2.4066501440
Ti         7.4637624628        3.7984335148       -0.0644070247
Ti         9.5118130094       13.2423948787        4.7812360059
Ti         7.5986416544        7.5338168846       -0.0565896890
Ti         9.5300514522        9.3932970564        4.7597941178
Ti         7.6385832692        9.4173798028        2.3232105419
Ti         9.5152988616        7.3581679986        7.1444594114
O         0.0551025154        0.0822814974        2.0911728066
O         1.6677946551        1.9361437921        6.7377483691
O        -0.0705163060        2.0002854014        4.4138116457
O         1.7985340018        0.1483256459        9.2360608634
O         1.8082233993       -0.0174868767        5.2611187102
O        -0.1507062939        2.0055621055        0.4927466976
O         1.8667347328        2.1763964357        2.8332283791
O        -0.0707163859       -0.0501102571        7.6233247422
O        -0.0296198456        3.9095094686        2.0823949041
O         1.9945841899       13.2704786389        6.8234027566
O        11.2875703655        1.8275705559        4.3145927674
O         5.6321514232       -0.0208375784        9.2659821101
O         2.1117077156        3.7577145191        5.1795714428
O         0.0530131188       13.3713169699        0.4381191141
O         5.6318150917        1.8526186529        2.8372090239
O        11.2849311456        0.0674017053        7.5635349125
O         3.7115627413        0.1177888374        7.6911246486
O        13.1895940807        1.8727415315        2.8315004461
O        13.1743750063       -0.1059183406        9.2167850758
O         3.7107681702        1.6495366765        4.3771481545
O         1.9081841652        5.6229632538        6.7414520286
O         0.0586273269       11.4538890684        1.9173551004
O         0.0843914381        5.7194011533        0.4672209081
O         1.9146548481       11.3167716200        5.2361827927
O         0.1227450045        7.7237098366        1.9509417275
O         2.1589378315        9.4635811260        6.7782253211
O         7.4569125217        1.8634615290        4.3602261466
O         9.4161640600        0.0363395810        9.1999504923
O         1.8231348671        7.5680149732        5.2750155482
O         0.1116168781        9.5675051454        0.2716712222
O         9.3700809857        2.0408904049        2.8407835119
O         7.4832365028       -0.1603122405        7.7001341783
O         3.7492305068        0.0576531428        2.0370053912
O        13.2187658683        1.8490464436        6.7821942129
O         0.0047001251        5.6053073252        4.4881273714
O         1.9278747011       11.3545709178        9.2653561129
O        13.1725016326       -0.0300733322        5.1323842224
O         3.7069287468        1.9541153490        0.4342157879
O         1.9461360712        5.8027444538        2.9120200582
O         0.0975801279       11.4251957922        7.5684754158
O        11.3473371390        2.0062390800        0.2867657169
O         5.8155983172       -0.0864680036        5.2760474173
O         5.5658353606        1.8281653283        6.7841878028
O        11.2699200985        0.1390542401        1.8946715000
O         1.9067972769        3.8346898789        9.2041905825
O        -0.0196712535       13.1549128663        4.4551638237
O         0.0224847023        3.8007575972        7.6775980661
O         1.8860469425       13.2363502931        2.8672131877
O         3.9657643646        3.8379602177        2.0687141449
O        13.1063059447       13.2704542133        6.7316423796
O        11.3718117863        5.6623617250        4.3854091613
O         5.6898659114       11.4705017375        9.2259126014
O        13.1780493076        3.8033473266        5.2203917534
O         3.6395509940       13.3093887882        0.5083306722
O         5.7394729252        5.9119085446        2.7395032409
O        11.3036303385       11.3379873986        7.6546084635
O        11.2514403525       13.2701045640        0.4102568795
O         5.4951836639        3.7194774552        5.1853852018
O         3.7887306010       11.3695820355        7.6806246556
O        13.2782401187        5.9245525168        2.8737983096
O         5.5176841564       13.1998556494        6.7812761905
O        11.5420859978        3.8318762941        1.9190782813
O        13.2361715339       11.4075521858        9.2092416897
O         3.8639102889        5.7140704614        4.4060371891
O         5.7624917480        5.6336594369        6.7338930183
O        11.1231830009       11.4598053475        2.0006628521
O        13.2089146070        3.9092896836        9.1360071075
O         3.7975832606       13.2148179822        4.3894818493
O        11.3577264515        5.7369394924        0.4116308970
O         5.7879385717       11.3034189829        5.2369113727
O         3.7448770575        3.7232604696        7.6491800836
O        13.2126484084       13.2151427963        2.7159907430
O        13.0532151348       11.4093292007        5.1538664214
O         3.7136854038        5.6748898822        0.4293649626
O         5.6957188213       13.1680221423        2.8684676973
O        11.2944662815        3.5632482934        7.5576761487
O         3.9626776637       11.4064901806        1.9652159936
O        13.2142567077        5.6413650849        6.8986022974
O        11.2876704210       13.3489062547        4.3221925261
O         5.6642076710        3.8114248833        9.1412990021
O         3.7858485192        7.6359675226        1.9259996222
O        13.3104387235        9.5854363647        6.7522194606
O         7.5727003049        5.5281898976        4.3204589432
O         9.4247297430       11.3235168103        9.2237035816
O        13.2645913663        7.5874817905        5.4210248181
O         3.8104134038        9.5219247235        0.3607041905
O         9.5550045028        5.5805987018        2.7901156566
O         7.5221807216       11.3466172388        7.5744724867
O        11.3448675374        9.4922560150        0.4092329461
O         5.7315635578        7.5683809682        5.1632013249
O         5.5491466599        9.4183353979        6.7579646348
O        11.2255047292        7.6055949095        2.0187167135
O         9.4353220159        3.9481102579        9.1475391421
O         7.5912075296       13.0453085453        4.4519557030
O         7.5037560068        3.6463948155        7.5500833690
O         9.4299920892       13.4670602274        2.8563036885
O         7.4434710791       -0.0382469115        2.0364445176
O         9.2148799073        1.8080296138        6.7268438262
O         0.0793606290        9.3701743840        4.4366431950
O         1.9264681316        7.5785941194        9.2016514750
O         9.3125499757       -0.0324654177        5.1951671708
O         7.6337243221        1.9048339951        0.4398931974
O         1.9643715634        9.6976467591        2.7724598114
O         0.0422088746        7.5687858489        7.6174044670
O         7.5234845310        3.7970900139        1.9483003345
O         9.5036899800       13.2088417195        6.7424270665
O        11.4416150254        9.2298499815        4.3772610769
O         5.6685356648        7.6967188082        9.1251510671
O         9.4806942456        3.6884380915        5.1836825833
O         7.5678114507       13.2197244854        0.4193468220
O         5.7406803857        9.4000978178        2.7129497025
O        11.3028512824        7.6440199394        7.5963549868
O         3.7904732375        7.3654118783        7.6015750999
O        13.3243486599        9.6154060066        2.8083520128
O        13.2653203189        7.6762090429        9.3248404670
O         3.8514710665        9.4254615725        4.2967012357
O         9.6087705568        5.5296542752        6.7540755315
O         7.6427592145       11.3272435658        1.9596056729
O         7.3442356387        5.6956962268        0.3712423976
O         9.5563803224       11.2280471378        5.1978432936
O         7.8586617114        7.5902157965        1.9238715989
O         9.4494422305        9.4170096718        6.8095632824
O         7.5593435077        9.3774478082        4.3254113231
O         9.4714466033        7.4399644478        9.2186434719
O         9.3559755820        7.4824936215        5.2466759068
O         7.5176240255        9.4674982577        0.3634811794
O         9.5712278694        9.5092573294        2.8713289471
O         7.5965279260        7.5409375395        7.5884794157
     192
 i =        2, E =     -5781.3745994848
Ti        -0.0592597045        0.1165174489        0.0323439302
Ti         1.8565516388        1.9283212524        4.8821325084
Ti         0.0400237586        2.0107434681        2.4897193083
Ti         1.8455943525       -0.0656966233        7.1916499200
Ti        -0.0567630378        3.8288180584       -0.0336464525
Ti         1.9523284951       13.2066207126        4.8399342078
Ti        11.3008876650        1.9582449334        2.4333455524
Ti         5.6006647229       -0.0751117569        7.2140532722
Ti         1.9052508510        3.8053582738        7.2470475822
Ti         0.0083664240       13.3335719253        2.4602785071
Ti         5.6816169729        1.8516580079        4.8124539556
Ti        11.2918386699        0.0931093815       -0.0329035593
Ti         3.6602598853        0.0815342595        0.0343055549
Ti        13.1636452184        1.7922791774        4.7354359600
Ti        13.2649992962       -0.0403854038        7.1775659005
Ti         3.7641401621        1.8327690557        2.5074213159
Ti         1.9634574254        5.6574848363        4.8328410786
Ti         0.0007000154       11.5629018221       -0.0054654792
Ti        -0.0152299201        5.7100052179        2.4792151109
Ti         1.8799118937       11.3447498206        7.3309196158
Ti         0.0339726589        7.4897660393        0.0299758408
Ti         2.0238195619        9.5194840714        4.8645592385
Ti         7.5006852946        1.9551405795        2.3329561340
Ti         9.4826481839       -0.1115148279        7.2265624218
Ti         1.9384446233        7.5719188656        7.1754698040
Ti         0.1044676799        9.5521397367        2.4911403797
Ti         9.3508555492        1.8215474620        4.7913131533
Ti         7.4669629067       -0.0338437422       -0.0644229259
Ti         3.7396220272        3.7712910057        0.0033859224
Ti        13.2317190075       13.1171392247        4.7785652630
Ti        11.3600625676        5.7143826941        2.3857620566
Ti         5.6737737244       11.3191642155        7.1742869254
Ti        13.1642131874        3.7050409114        7.2308948351
Ti         3.7819993385       13.1935283928        2.4442167149
Ti         5.6986384308        5.6984145952        4.8347740402
Ti        11.2240234131       11.3868656142        0.0817124373
Ti        11.3051429637       13.3133092383        2.3468378006
Ti         5.6658564528        3.7256808217        7.1416333076
Ti         3.8664374853       11.3961198424        0.0213259009
Ti        13.2756661246        5.5927305621        4.8718904092
Ti         5.7718052221       13.2038607953        4.8061057816
Ti        11.2623000415        3.7981022100       -0.0440284827
Ti        13.1238114845       11.3533733436        7.2619222214
Ti         3.8032054563        5.6318494074        2.3936436065
Ti         3.7903746945        7.5814884730        0.0316595314
Ti        13.2843362022        9.4299274592        4.8411695959
Ti         7.4937791536        5.6842371121        2.4118565102
Ti         9.4108401539       11.1778311439        7.1698950809
Ti        13.2970130221        7.5276413994        7.1967264492
Ti         3.8587412917        9.4345874763        2.3518303654
Ti         9.5193840165        5.5729331272        4.7262890844
Ti         7.5651828461       11.3538300307        0.0424448400
Ti        11.3947834494        9.4537356653        2.4342852394
Ti         5.6643099853        7.5820158907        7.2242463304
Ti         5.7699387474        9.4201347760        4.7583110966
Ti        11.3302633231        7.5857498864       -0.0002780538
Ti         9.4363511289        3.6639185216        7.1746603912
Ti         7.5408299992       13.3245953918        2.3893769397
Ti         7.4745929889        3.7980051789       -0.0581093561
Ti         9.4973235394       13.2364889075        4.7881888349
Ti         7.6105237155        7.5334106823       -0.0628113208
Ti         9.5272498066        9.4211499163        4.7782287032
Ti         7.6132935343        9.4155504521        2.3304400021
Ti         9.5179251486        7.3894101254        7.1530256095
O         0.0561469003        0.0644185587        2.0272989783
O         1.7599098692        1.9171298173        6.7660735802
O        -0.0222063251        1.9774431329        4.3925158028
O         1.7969855302        0.1241751144        9.2098808337
O         1.8155707850       -0.0106940103        5.2672074668
O        -0.1159830181        2.0075215084        0.4526772210
O         1.8677868703        2.0892467642        2.8114740853
O        -0.0523971918       -0.0540440191        7.6409556197
O        -0.0611552920        3.8909931629        2.0703094387
O         1.9862963114       13.2446031507        6.8342183989
O        11.2943488228        1.8437003782        4.3414185464
O         5.6041209614        0.0182591923        9.2487241204
O         2.0631514531        3.7794684265        5.1942629227
O         0.0475840722       13.3733701866        0.4342864678
O         5.6340852937        1.9210062002        2.8214059320
O        11.3095458553        0.0758617455        7.5720008508
O         3.7019601389        0.0834957366        7.6682682432
O        13.1900231869        1.8973536162        2.8384203033
O        13.1859042152       -0.0270000513        9.1875746301
O         3.7217003611        1.6803078052        4.3969664952
O         1.8713525504        5.6371560800        6.7700214321
O         0.0239082126       11.4265882547        1.9136869359
O         0.0371401074        5.7084719541        0.4598029889
O         1.8934010821       11.3351198853        5.2421312386
O         0.1259690513        7.6979539539        1.9380769792
O         2.0533666913        9.4673268472        6.7935086196
O         7.4975442705        1.9140055849        4.3800677247
O         9.4181523595        0.0145142022        9.1722974001
O         1.8950964828        7.5662866991        5.2691691420
O         0.0840976595        9.5419904432        0.2693918818
O         9.3822186456        1.9811876531        2.8205753836
O         7.4778822274       -0.1315053568        7.6719755730
O         3.7348226360        0.0638062620        2.0319473564
O        13.2723189151        1.8662650128        6.7889618693
O         0.0121369643        5.5949400933        4.4635491869
O         1.8910834085       11.3524724792        9.2464035703
O        13.2296042826       -0.0046673035        5.1713683426
O         3.7140424179        1.9343260479        0.4435191321
O         1.9423440158        5.7496422512        2.8689660746
O         0.0476369205       11.4327624158        7.5978137109
O        11.3226422353        1.9830128736        0.3132090705
O         5.7870245669       -0.0570976311        5.2552300836
O         5.6320475654        1.8251512565        6.7798320397
O        11.2988338267        0.1287546396        1.9185079077
O         1.8855619747        3.8175441435        9.2353720661
O        -0.0109504211       13.2072699016        4.4125313408
O         0.0017516305        3.7814476418        7.6771399465
O         1.8812702067       13.2380314811        2.8639417272
O         3.9002516643        3.8484306081        2.0575137708
O        13.1566641363       13.2352353032        6.7825984051
O        11.3676754797        5.6657212630        4.4038563061
O         5.6969341268       11.4554175362        9.2260686283
O        13.1570308136        3.8047247854        5.2217197939
O         3.6499009952       13.2946050332        0.4761018127
O         5.7104979661        5.8729491819        2.7651457308
O        11.3198390483       11.3345730557        7.6153278400
O        11.2746372892       13.2732519813        0.3880631800
O         5.5866738906        3.7218260228        5.1874618141
O         3.7914344859       11.3758924617        7.6653705307
O        13.2875104223        5.9021410010        2.8672380667
O         5.5213541335       13.2041927992        6.8085143465
O        11.4766289471        3.8067990691        1.9613905387
O        13.2558479984       11.4304671376        9.1986413570
O         3.8553845423        5.7216914054        4.3994280271
O         5.7517217583        5.6323527205        6.7349276407
O        11.2168372271       11.4105123726        2.0068564457
O        13.2069589130        3.8899986022        9.1476967596
O         3.7830932421       13.2314065094        4.4154536380
O        11.4029290292        5.7427175214        0.4079416797
O         5.7407724023       11.2895186273        5.2482159371
O         3.7567617854        3.7243195433        7.6579986850
O        13.2312870483       13.2681874307        2.7766100639
O        13.0880411305       11.3471800825        5.1599677998
O         3.7413512929        5.6808698587        0.4244938980
O         5.6937708849       13.2324054951        2.8544058305
O        11.3027748636        3.5813312872        7.5792288167
O         3.9226504294       11.3999560065        1.9856373274
O        13.2219600680        5.6546739297        6.8361786198
O        11.3055399132       13.3083186775        4.3408286723
O         5.6584629422        3.7836837056        9.1593569436
O         3.7553378441        7.6110690692        1.9414181877
O        13.3099268936        9.5433355363        6.7821165577
O         7.5845618209        5.5200836772        4.3317975959
O         9.4333204692       11.3101431496        9.1736495861
O        13.2984786818        7.5754296070        5.3422993288
O         3.7972002354        9.5091078739        0.3799979133
O         9.5059909421        5.5789029389        2.7968864142
O         7.5191334607       11.3222577819        7.5648089676
O        11.3612043210        9.4841723027        0.4691701772
O         5.7453987732        7.5504837314        5.1794905856
O         5.6013830681        9.4039500026        6.7705091601
O        11.3000861354        7.6167548762        2.0009103614
O         9.4162316850        3.9288700940        9.1495199156
O         7.5733450384       13.0875380462        4.4073203643
O         7.5208268090        3.6939536183        7.5743086765
O         9.4261891605       13.3744540176        2.8229324570
O         7.4811927950        0.0027492769        2.0337857751
O         9.2819329703        1.8233688282        6.7600668552
O         0.0526800900        9.4365910664        4.4207612711
O         1.9063226855        7.6632185998        9.2131187258
O         9.3562640396       -0.0231411669        5.2042022320
O         7.5615016453        1.9138538461        0.4100941494
O         1.9358094574        9.6334706373        2.7674428909
O         0.0323131110        7.5850429605        7.6161502275
O         7.4797586478        3.8184805494        1.9468264373
O         9.4848450708       13.2163755309        6.7610924347
O        11.4120400090        9.2488099568        4.4020465658
O         5.6718779677        7.6491887873        9.1553579905
O         9.4560743416        3.7122928462        5.1951788946
O         7.5860857518       13.2531702532        0.4292931546
O         5.7304575336        9.4116532870        2.7519174585
O        11.3379205202        7.6250790288        7.6370564960
O         3.7829054651        7.3960097184        7.5977463605
O        13.2910522448        9.6014113874        2.8114952077
O        13.2662904531        7.6595047653        9.2281265933
O         3.8432335742        9.3937049050        4.3197160377
O         9.5406302589        5.5645797285        6.7644296372
O         7.6645866878       11.3297729911        1.9550144384
O         7.4153713260        5.6906412600        0.4033220346
O         9.5561804244       11.2539787134        5.2080769612
O         7.7912486532        7.5597883875        1.9432603361
O         9.4650008625        9.4102551131        6.8359217144
O         7.5810280068        9.3887455247        4.3434280871
O         9.4705927267        7.4983312865        9.1816506997
O         9.4028252192        7.4928535662        5.2321248570
O         7.5319508501        9.4543990950        0.3666837546
O         9.5274714375        9.5079335246        2.8652817906
O         7.5891353813        7.5157131814        7.5947809386
     192
 i =        3, E =     -5781.4120038574
Ti        -0.0483359015        0.1171074508        0.0175100784
Ti         1.8641429834        1.9208514942        4.8701541430
Ti         0.0360247620        2.0060319358        2.4716012269
Ti         1.8506376524       -0.0539034589        7.2009819871
Ti        -0.0661412284        3.8173746504       -0.0302919488
Ti         1.9495592504       13.2228241198        4.8286524164
Ti        11.3238486146        1.9446866362        2.4326278585
Ti         5.6055932148       -0.0518151332        7.2110480213
Ti         1.9011941554        3.7947049439        7.2470261041
Ti         0.0051059785       13.3342073758        2.4468133763
Ti         5.6870650770        1.8599475237        4.8132407903
Ti        11.2853463461        0.0819275449       -0.0274820826
Ti         3.6700413695        0.0800208477        0.0272517946
Ti        13.1815413306        1.8132873086        4.7665708308
Ti        13.2495637442       -0.0288091061        7.1969913996
Ti         3.7725844049        1.8413022400        2.4841710075
Ti         1.9586785964        5.6669136825        4.8266984413
Ti        -0.0122085403       11.5514957988       -0.0144897104
Ti        -0.0090044223        5.7001709636        2.4718364520
Ti         1.8656938291       11.3527851854        7.2975288057
Ti         0.0152750562        7.4984657771        0.0074037806
Ti         2.0037995755        9.5189597453        4.8476408336
Ti         7.5159211118        1.9469607337        2.3336396658
Ti         9.4705209669       -0.0927989160        7.2176869810
Ti         1.9261187491        7.5676195340        7.1772824819
Ti         0.0844850345        9.5309053364        2.4909174442
Ti         9.3660180309        1.8371913051        4.7874918351
Ti         7.4667710049       -0.0099631832       -0.0561610362
Ti         3.7450708396        3.7763619212        0.0124911695
Ti        13.2341437600       13.1413114805        4.7828074000
Ti        11.3628149177        5.7080226537        2.3924670633
Ti         5.6690615100       11.3188825848        7.1902459805
Ti        13.1765041142        3.7209377299        7.2189040853
Ti         3.7798798370       13.2178583151        2.4227365324
Ti         5.7001198650        5.6809187259        4.8403346766
Ti        11.2404725862       11.3880479325        0.0548198218
Ti        11.3233301369       13.2973509546        2.3673376946
Ti         5.6655180542        3.7321763839        7.1586205524
Ti         3.8451607174       11.3897306524        0.0194374269
Ti        13.2709038449        5.5965831065        4.8499214006
Ti         5.7475814705       13.2034939003        4.7977293023
Ti        11.2684125545        3.7963689471       -0.0206953457
Ti        13.1630403131       11.3304541809        7.2721052217
Ti         3.7944208399        5.6320144406        2.3914813839
Ti         3.7776839645        7.5938922744        0.0153585000
Ti        13.2811906797        9.4378035339        4.8397596269
Ti         7.4994192763        5.6905045598        2.4062657992
Ti         9.4178809127       11.2084846468        7.1642731585
Ti        13.2958535785        7.5233023839        7.1831246750
Ti         3.8390409068        9.4329430717        2.3768436254
Ti         9.5014869474        5.5848147973        4.7439801209
Ti         7.5711755405       11.3480127578        0.0258294414
Ti        11.4017849944        9.4553482216        2.4259994094
Ti         5.6718183445        7.5613761394        7.2354328776
Ti         5.7583571977        9.4146733900        4.7765644658
Ti        11.3517725731        7.5906227511       -0.0137136990
Ti         9.4329558614        3.6864722060        7.1836666333
Ti         7.5476582239       13.3302688937        2.3804372545
Ti         7.4821810411        3.8047652767       -0.0482420371
Ti         9.4892971152       13.2303035529        4.7893550960
Ti         7.6113254305        7.5359400202       -0.0610534549
Ti         9.5178725619        9.4294723917        4.7752838345
Ti         7.6082771772        9.4337386229        2.3502496872
Ti         9.5112300728        7.4302542985        7.1635799333
O         0.0452320891        0.0757675566        1.9994593138
O         1.8031940609        1.9142116520        6.7783824012
O         0.0054651017        1.9481009296        4.3956087897
O         1.8155315562        0.1236004703        9.2057918534
O         1.8081757925       -0.0134859113        5.2646000184
O        -0.1065484338        1.9924161446        0.4425444481
O         1.8707636746        2.0266376958        2.7995902015
O        -0.0388889472       -0.0613924630        7.6339363116
O        -0.0888791963        3.8763002399        2.0478773257
O         1.9617707183       13.2322105142        6.8338458376
O        11.2926600134        1.8522274447        4.3708830309
O         5.5910448600        0.0147687839        9.2347435949
O         2.0315880833        3.7849698318        5.2117511976
O         0.0381229263       13.3580533441        0.4246140888
O         5.6451343754        1.9540779977        2.8164187209
O        11.3063278698        0.0585481970        7.5783395911
O         3.7124687776        0.0382248286        7.6630444627
O        13.2037695220        1.8914561747        2.8487479368
O        13.1920110196        0.0364749054        9.1788020615
O         3.7484539868        1.7253284379        4.4034831256
O         1.8581890013        5.6502073048        6.7972828741
O        -0.0149267125       11.4078615663        1.9203336122