 DBCSR| CPU Multiplication driver                                           XSMM (U)
 DBCSR| Multrec recursion limit                                              512 (U)
 DBCSR| Multiplication stack size                                           1000 (D)
 DBCSR| Maximum elements for images                                    UNLIMITED (U)
 DBCSR| Multiplicative factor virtual images                                   1 (U)
 DBCSR| Use multiplication densification                                       T (D)
 DBCSR| Multiplication size stacks                                             3 (U)
 DBCSR| Use memory pool for CPU allocation                                     F (U)
 DBCSR| Number of 3D layers                                               SINGLE (U)
 DBCSR| Use MPI memory allocation                                              F (U)
 DBCSR| Use RMA algorithm                                                      F (U)
 DBCSR| Use Communication thread                                               T (U)
 DBCSR| Communication thread load                                             87 (D)
 DBCSR| MPI: My process id                                                     0
 DBCSR| MPI: Number of processes                                             128
 DBCSR| OMP: Current number of threads                                         1
 DBCSR| OMP: Max number of threads                                             1
 DBCSR| Split modifier for TAS multiplication algorithm                  1.0E+00 (U)


  **** **** ******  **  PROGRAM STARTED AT               2025-06-17 07:48:58.514
 ***** ** ***  *** **   PROGRAM STARTED ON                             nid004964
 **    ****   ******    PROGRAM STARTED BY                                cahart
 ***** **    ** ** **   PROGRAM PROCESS ID                                 55821
  **** **  *******  **  PROGRAM STARTED IN /mnt/lustre/a2fs-work2/work/e05/e05/c
                                           ahart/postdoc2/work/group/tio2/anatas
                                           e/cell-441/geo-opt/mp-390/neutral-fro
                                           m-hole/pbe-u-o/pbe

 CP2K| version string:                                       CP2K version 2024.3
 CP2K| source code revision number:                                  git:6712648
 CP2K| cp2kflags: omp libint fftw3 libxc libgrpp elpa parallel scalapack cosma x
 CP2K|            smm plumed2 spglib mkl sirius libvori libbqb libvdwxc hdf5
 CP2K| is freely available from                            https://www.cp2k.org/
 CP2K| Program compiled at                       Thu 12 Sep 2024 10:20:47 AM BST
 CP2K| Program compiled on                                                  ln04
 CP2K| Program compiled for                                                local
 CP2K| Data directory path    /mnt/lustre/a2fs-work1/work/y07/shared/apps/core/c
 CP2K| Input file name                                                 input.inp

 GLOBAL| Force Environment number                                              1
 GLOBAL| Basis set file name                                        BASIS_MOLOPT
 GLOBAL| Potential file name                                      GTH_POTENTIALS
 GLOBAL| MM Potential file name                                     MM_POTENTIAL
 GLOBAL| Coordinate file name                                         system.xyz
 GLOBAL| Method name                                                        CP2K
 GLOBAL| Project name                                                       tio2
 GLOBAL| Run type                                                         ENERGY
 GLOBAL| FFT library                                                       FFTW3
 GLOBAL| Diagonalization library                                            ELPA
 GLOBAL| DGEMM library                                                      BLAS
 GLOBAL| Minimum number of eigenvectors for ELPA usage                        16
 GLOBAL| Orthonormality check for eigenvectors                          DISABLED
 GLOBAL| Matrix multiplication library                                     COSMA
 GLOBAL| All-to-all communication in single precision                          F
 GLOBAL| FFTs using library dependent lengths                                  F
 GLOBAL| Grid backend                                                       AUTO
 GLOBAL| Global print level                                               MEDIUM
 GLOBAL| MPI I/O enabled                                                       T
 GLOBAL| Total number of message passing processes                           128
 GLOBAL| Number of threads for this process                                    1
 GLOBAL| This output is from process                                           0
 GLOBAL| Stack size for threads created by OpenMP (OMP_STACKSIZE)        default
 GLOBAL| CPU model name                          AMD EPYC 7742 64-Core Processor
 GLOBAL| CPUID                                                              1002

 MEMORY| system memory details [Kb]
 MEMORY|                        rank 0           min           max       average
 MEMORY| MemTotal            263341976     263341976     263341976     263341976
 MEMORY| MemFree             236069496     236069496     236069748     236069570
 MEMORY| Buffers                     0             0             0             0
 MEMORY| Cached                1532776       1532776       1532776       1532776
 MEMORY| Slab                  5166648       5166636       5166648       5166644
 MEMORY| SReclaimable           120328        120328        120328        120328
 MEMORY| MemLikelyFree       237722600     237722600     237722852     237722674


 *** Fundamental physical constants (SI units) ***

 *** Literature: B. J. Mohr and B. N. Taylor,
 ***             CODATA recommended values of the fundamental physical
 ***             constants: 2006, Web Version 5.1
 ***             http://physics.nist.gov/constants

 Speed of light in vacuum [m/s]                             2.99792458000000E+08
 Magnetic constant or permeability of vacuum [N/A**2]       1.25663706143592E-06
 Electric constant or permittivity of vacuum [F/m]          8.85418781762039E-12
 Planck constant (h) [J*s]                                  6.62606896000000E-34
 Planck constant (h-bar) [J*s]                              1.05457162825177E-34
 Elementary charge [C]                                      1.60217648700000E-19
 Electron mass [kg]                                         9.10938215000000E-31
 Electron g factor [ ]                                     -2.00231930436220E+00
 Proton mass [kg]                                           1.67262163700000E-27
 Fine-structure constant                                    7.29735253760000E-03
 Rydberg constant [1/m]                                     1.09737315685270E+07
 Avogadro constant [1/mol]                                  6.02214179000000E+23
 Boltzmann constant [J/K]                                   1.38065040000000E-23
 Atomic mass unit [kg]                                      1.66053878200000E-27
 Bohr radius [m]                                            5.29177208590000E-11

 *** Conversion factors ***

 [u] -> [a.u.]                                              1.82288848426455E+03
 [Angstrom] -> [Bohr] = [a.u.]                              1.88972613288564E+00
 [a.u.] = [Bohr] -> [Angstrom]                              5.29177208590000E-01
 [a.u.] -> [s]                                              2.41888432650478E-17
 [a.u.] -> [fs]                                             2.41888432650478E-02
 [a.u.] -> [J]                                              4.35974393937059E-18
 [a.u.] -> [N]                                              8.23872205491840E-08
 [a.u.] -> [K]                                              3.15774647902944E+05
 [a.u.] -> [kJ/mol]                                         2.62549961709828E+03
 [a.u.] -> [kcal/mol]                                       6.27509468713739E+02
 [a.u.] -> [Pa]                                             2.94210107994716E+13
 [a.u.] -> [bar]                                            2.94210107994716E+08
 [a.u.] -> [atm]                                            2.90362800883016E+08
 [a.u.] -> [eV]                                             2.72113838565563E+01
 [a.u.] -> [Hz]                                             6.57968392072181E+15
 [a.u.] -> [1/cm] (wave numbers)                            2.19474631370540E+05
 [a.u./Bohr**2] -> [1/cm]                                   5.14048714338585E+03
 

 CELL_TOP| Volume [angstrom^3]:                                      2198.132028
 CELL_TOP| Vector a [angstrom    15.120     0.000     0.000   |a| =    15.120000
 CELL_TOP| Vector b [angstrom     0.000    15.120     0.000   |b| =    15.120000
 CELL_TOP| Vector c [angstrom     0.000     0.000     9.615   |c| =     9.615020
 CELL_TOP| Angle (b,c), alpha [degree]:                                90.000000
 CELL_TOP| Angle (a,c), beta  [degree]:                                90.000000
 CELL_TOP| Angle (a,b), gamma [degree]:                                90.000000
 CELL_TOP| Requested initial symmetry:                       MONOCLINIC_GAMMA_AB
 CELL_TOP| Numerically orthorhombic:                                         YES
 CELL_TOP| Periodicity                                                       XYZ

 *** WARNING in atoms_input.F:123 :: Overwriting coordinates. Active    ***
 *** coordinates read from &COORD section. Active coordinates READ from ***
 *** &COORD section                                                     ***


 GENERATE|  Preliminary Number of Bonds generated:                             0
 GENERATE|  Achieved consistency in connectivity generation.

 CELL| Volume [angstrom^3]:                                          2198.132028
 CELL| Vector a [angstrom]:      15.120     0.000     0.000   |a| =    15.120000
 CELL| Vector b [angstrom]:       0.000    15.120     0.000   |b| =    15.120000
 CELL| Vector c [angstrom]:       0.000     0.000     9.615   |c| =     9.615020
 CELL| Angle (b,c), alpha [degree]:                                    90.000000
 CELL| Angle (a,c), beta  [degree]:                                    90.000000
 CELL| Angle (a,b), gamma [degree]:                                    90.000000
 CELL| Requested initial symmetry:                           MONOCLINIC_GAMMA_AB
 CELL| Numerically orthorhombic:                                             YES
 CELL| Periodicity                                                           XYZ

 CELL_REF| Volume [angstrom^3]:                                      2198.132028
 CELL_REF| Vector a [angstrom    15.120     0.000     0.000   |a| =    15.120000
 CELL_REF| Vector b [angstrom     0.000    15.120     0.000   |b| =    15.120000
 CELL_REF| Vector c [angstrom     0.000     0.000     9.615   |c| =     9.615020
 CELL_REF| Angle (b,c), alpha [degree]:                                90.000000
 CELL_REF| Angle (a,c), beta  [degree]:                                90.000000
 CELL_REF| Angle (a,b), gamma [degree]:                                90.000000
 CELL_REF| Requested initial symmetry:                       MONOCLINIC_GAMMA_AB
 CELL_REF| Numerically orthorhombic:                                         YES
 CELL_REF| Periodicity                                                       XYZ

 *******************************************************************************
 *******************************************************************************
 **                                                                           **
 **     #####                         ##              ##                      **
 **    ##   ##            ##          ##              ##                      **
 **   ##     ##                       ##            ######                    **
 **   ##     ##  ##   ##  ##   #####  ##  ##   ####   ##    #####    #####    **
 **   ##     ##  ##   ##  ##  ##      ## ##   ##      ##   ##   ##  ##   ##   **
 **   ##  ## ##  ##   ##  ##  ##      ####     ###    ##   ######   ######    **
 **    ##  ###   ##   ##  ##  ##      ## ##      ##   ##   ##       ##        **
 **     #######   #####   ##   #####  ##  ##  ####    ##    #####   ##        **
 **           ##                                                    ##        **
 **                                                                           **
 **                                                ... make the atoms dance   **
 **                                                                           **
 **            Copyright (C) by CP2K developers group (2000-2024)             **
 **                      J. Chem. Phys. 152, 194103 (2020)                    **
 **                                                                           **
 *******************************************************************************

 DFT| Spin unrestricted (spin-polarized) Kohn-Sham calculation               UKS
 DFT| Multiplicity                                                             1
 DFT| Number of spin states                                                    2
 DFT| Charge                                                                   0
 DFT| Self-interaction correction (SIC)                                       NO
 DFT| Cutoffs: density                                              1.000000E-10
 DFT|          gradient                                             1.000000E-10
 DFT|          tau                                                  1.000000E-10
 DFT|          cutoff_smoothing_range                               0.000000E+00
 DFT| XC density smoothing                                                  NONE
 DFT| XC derivatives                                                          PW

 FUNCTIONAL| PBE:
 FUNCTIONAL| J.P.Perdew, K.Burke, M.Ernzerhof, Phys. Rev. Letter, vol. 77, n 18,
 FUNCTIONAL|  pp. 3865-3868, (1996) {spin polarized}                            


 QS| Method:                                                                 GPW
 QS| Density plane wave grid type                        NON-SPHERICAL FULLSPACE
 QS| Number of grid levels:                                                    4
 QS| Density cutoff [a.u.]:                                                300.0
 QS| Multi grid cutoff [a.u.]: 1) grid level                               300.0
 QS|                           2) grid level                               100.0
 QS|                           3) grid level                                33.3
 QS|                           4) grid level                                11.1
 QS| Grid level progression factor:                                          3.0
 QS| Relative density cutoff [a.u.]:                                        20.0
 QS| Interaction thresholds: eps_pgf_orb:                                1.0E-06
 QS|                         eps_filter_matrix:                          0.0E+00
 QS|                         eps_core_charge:                            1.0E-14
 QS|                         eps_rho_gspace:                             1.0E-12
 QS|                         eps_rho_rspace:                             1.0E-12
 QS|                         eps_gvg_rspace:                             1.0E-06
 QS|                         eps_ppl:                                    1.0E-02
 QS|                         eps_ppnl:                                   1.0E-08


 ATOMIC KIND INFORMATION

  1. Atomic kind: Ti                                    Number of atoms:      64

     Orbital Basis Set                                    DZVP-MOLOPT-SR-GTH-q12

       Number of orbital shell sets:                                           1
       Number of orbital shells:                                               8
       Number of primitive Cartesian functions:                                6
       Number of Cartesian basis functions:                                   31
       Number of spherical basis functions:                                   26
       Norm type:                                                              2

       Normalised Cartesian orbitals:

                        Set   Shell   Orbital            Exponent    Coefficient

                          1       1    2s                7.884570       0.015554
                                                         3.894698       0.963603
                                                         1.513589      -0.631435
                                                         0.596768      -0.343022
                                                         0.222222      -0.006534
                                                         0.077078       0.007652

                          1       2    3s                7.884570      -0.009340
                                                         3.894698       0.212624
                                                         1.513589      -0.258368
                                                         0.596768      -0.226206
                                                         0.222222       0.039438
                                                         0.077078       0.107179

                          1       3    4s                7.884570       0.276563
                                                         3.894698       0.105452
                                                         1.513589       0.085149
                                                         0.596768       0.882541
                                                         0.222222      -0.696223
                                                         0.077078       0.156638

                          1       4    3px               7.884570      -2.034794
                                                         3.894698       0.782008
                                                         1.513589       1.253903
                                                         0.596768       0.347823
                                                         0.222222       0.016778
                                                         0.077078      -0.000433
                          1       4    3py               7.884570      -2.034794
                                                         3.894698       0.782008
                                                         1.513589       1.253903
                                                         0.596768       0.347823
                                                         0.222222       0.016778
                                                         0.077078      -0.000433
                          1       4    3pz               7.884570      -2.034794
                                                         3.894698       0.782008
                                                         1.513589       1.253903
                                                         0.596768       0.347823
                                                         0.222222       0.016778
                                                         0.077078      -0.000433

                          1       5    4px               7.884570       0.376572
                                                         3.894698      -0.182875
                                                         1.513589      -0.474776
                                                         0.596768      -0.081757
                                                         0.222222       0.064432
                                                         0.077078       0.047279
                          1       5    4py               7.884570       0.376572
                                                         3.894698      -0.182875
                                                         1.513589      -0.474776
                                                         0.596768      -0.081757
                                                         0.222222       0.064432
                                                         0.077078       0.047279
                          1       5    4pz               7.884570       0.376572
                                                         3.894698      -0.182875
                                                         1.513589      -0.474776
                                                         0.596768      -0.081757
                                                         0.222222       0.064432
                                                         0.077078       0.047279

                          1       6    4dx2              7.884570       3.047350
                                                         3.894698       3.289529
                                                         1.513589       1.060616
                                                         0.596768       0.249930
                                                         0.222222       0.038806
                                                         0.077078       0.002319
                          1       6    4dxy              7.884570       5.278165
                                                         3.894698       5.697631
                                                         1.513589       1.837041
                                                         0.596768       0.432892
                                                         0.222222       0.067214
                                                         0.077078       0.004017
                          1       6    4dxz              7.884570       5.278165
                                                         3.894698       5.697631
                                                         1.513589       1.837041
                                                         0.596768       0.432892
                                                         0.222222       0.067214
                                                         0.077078       0.004017
                          1       6    4dy2              7.884570       3.047350
                                                         3.894698       3.289529
                                                         1.513589       1.060616
                                                         0.596768       0.249930
                                                         0.222222       0.038806
                                                         0.077078       0.002319
                          1       6    4dyz              7.884570       5.278165
                                                         3.894698       5.697631
                                                         1.513589       1.837041
                                                         0.596768       0.432892
                                                         0.222222       0.067214
                                                         0.077078       0.004017
                          1       6    4dz2              7.884570       3.047350
                                                         3.894698       3.289529
                                                         1.513589       1.060616
                                                         0.596768       0.249930
                                                         0.222222       0.038806
                                                         0.077078       0.002319

                          1       7    5dx2              7.884570      -2.119015
                                                         3.894698      -1.237751
                                                         1.513589      -0.746777
                                                         0.596768      -0.071514
                                                         0.222222       0.004086
                                                         0.077078       0.017595
                          1       7    5dxy              7.884570      -3.670241
                                                         3.894698      -2.143848
                                                         1.513589      -1.293455
                                                         0.596768      -0.123865
                                                         0.222222       0.007077
                                                         0.077078       0.030475
                          1       7    5dxz              7.884570      -3.670241
                                                         3.894698      -2.143848
                                                         1.513589      -1.293455
                                                         0.596768      -0.123865
                                                         0.222222       0.007077
                                                         0.077078       0.030475
                          1       7    5dy2              7.884570      -2.119015
                                                         3.894698      -1.237751
                                                         1.513589      -0.746777
                                                         0.596768      -0.071514
                                                         0.222222       0.004086
                                                         0.077078       0.017595
                          1       7    5dyz              7.884570      -3.670241
                                                         3.894698      -2.143848
                                                         1.513589      -1.293455
                                                         0.596768      -0.123865
                                                         0.222222       0.007077
                                                         0.077078       0.030475
                          1       7    5dz2              7.884570      -2.119015
                                                         3.894698      -1.237751
                                                         1.513589      -0.746777
                                                         0.596768      -0.071514
                                                         0.222222       0.004086
                                                         0.077078       0.017595

                          1       8    5fx3              7.884570      -0.342058
                                                         3.894698       0.375798
                                                         1.513589      -0.706469
                                                         0.596768      -0.229994
                                                         0.222222      -0.012723
                                                         0.077078       0.003932
                          1       8    5fx2y             7.884570      -0.764866
                                                         3.894698       0.840310
                                                         1.513589      -1.579712
                                                         0.596768      -0.514282
                                                         0.222222      -0.028450
                                                         0.077078       0.008792
                          1       8    5fx2z             7.884570      -0.764866
                                                         3.894698       0.840310
                                                         1.513589      -1.579712
                                                         0.596768      -0.514282
                                                         0.222222      -0.028450
                                                         0.077078       0.008792
                          1       8    5fxy2             7.884570      -0.764866
                                                         3.894698       0.840310
                                                         1.513589      -1.579712
                                                         0.596768      -0.514282
                                                         0.222222      -0.028450
                                                         0.077078       0.008792
                          1       8    5fxyz             7.884570      -1.324787
                                                         3.894698       1.455460
                                                         1.513589      -2.736142
                                                         0.596768      -0.890763
                                                         0.222222      -0.049276
                                                         0.077078       0.015229
                          1       8    5fxz2             7.884570      -0.764866
                                                         3.894698       0.840310
                                                         1.513589      -1.579712
                                                         0.596768      -0.514282
                                                         0.222222      -0.028450
                                                         0.077078       0.008792
                          1       8    5fy3              7.884570      -0.342058
                                                         3.894698       0.375798
                                                         1.513589      -0.706469
                                                         0.596768      -0.229994
                                                         0.222222      -0.012723
                                                         0.077078       0.003932
                          1       8    5fy2z             7.884570      -0.764866
                                                         3.894698       0.840310
                                                         1.513589      -1.579712
                                                         0.596768      -0.514282
                                                         0.222222      -0.028450
                                                         0.077078       0.008792
                          1       8    5fyz2             7.884570      -0.764866
                                                         3.894698       0.840310
                                                         1.513589      -1.579712
                                                         0.596768      -0.514282
                                                         0.222222      -0.028450
                                                         0.077078       0.008792
                          1       8    5fz3              7.884570      -0.342058
                                                         3.894698       0.375798
                                                         1.513589      -0.706469
                                                         0.596768      -0.229994
                                                         0.222222      -0.012723
                                                         0.077078       0.003932

       Atomic covalent radius [Angstrom]:                                  1.320

       Atomic van der Waals radius [Angstrom]:                             1.760

     GTH Potential information for                                   GTH-PBE-q12

       Description:                       Goedecker-Teter-Hutter pseudopotential
                                           Goedecker et al., PRB 54, 1703 (1996)
                                          Hartwigsen et al., PRB 58, 3641 (1998)
                                                      Krack, TCA 114, 145 (2005)

       Gaussian exponent of the core charge distribution:               3.462604
       Electronic configuration (s p d ...):                           4   6   2

       Parameters of the local part of the GTH pseudopotential:

                          rloc        C1          C2          C3          C4
                        0.380000    8.711442   -0.700287

       Parameters of the non-local part of the GTH pseudopotential:

                   l      r(l)      h(i,j,l)

                   0    0.337771    2.575264    3.692971
                                    3.692971   -4.767605
                   1    0.242531   -4.630541    8.870875
                                    8.870875  -10.496161
                   2    0.243317   -9.406653

  2. Atomic kind: O                                     Number of atoms:     128

     Orbital Basis Set                                     DZVP-MOLOPT-SR-GTH-q6

       Number of orbital shell sets:                                           1
       Number of orbital shells:                                               5
       Number of primitive Cartesian functions:                                5
       Number of Cartesian basis functions:                                   14
       Number of spherical basis functions:                                   13
       Norm type:                                                              2

       Normalised Cartesian orbitals:

                        Set   Shell   Orbital            Exponent    Coefficient

                          1       1    2s               10.389228       0.396646
                                                         3.849621       0.208811
                                                         1.388401      -0.301641
                                                         0.496955      -0.274061
                                                         0.162492      -0.033677

                          1       2    3s               10.389228       0.303673
                                                         3.849621       0.240943
                                                         1.388401      -0.313066
                                                         0.496955      -0.043055
                                                         0.162492       0.213991

                          1       3    3px              10.389228      -1.530415
                                                         3.849621      -1.371928
                                                         1.388401      -0.761951
                                                         0.496955      -0.253695
                                                         0.162492      -0.035541
                          1       3    3py              10.389228      -1.530415
                                                         3.849621      -1.371928
                                                         1.388401      -0.761951
                                                         0.496955      -0.253695
                                                         0.162492      -0.035541
                          1       3    3pz              10.389228      -1.530415
                                                         3.849621      -1.371928
                                                         1.388401      -0.761951
                                                         0.496955      -0.253695
                                                         0.162492      -0.035541

                          1       4    4px              10.389228      -0.565392
                                                         3.849621      -0.038231
                                                         1.388401      -0.382373
                                                         0.496955       0.179070
                                                         0.162492       0.122714
                          1       4    4py              10.389228      -0.565392
                                                         3.849621      -0.038231
                                                         1.388401      -0.382373
                                                         0.496955       0.179070
                                                         0.162492       0.122714
                          1       4    4pz              10.389228      -0.565392
                                                         3.849621      -0.038231
                                                         1.388401      -0.382373
                                                         0.496955       0.179070
                                                         0.162492       0.122714

                          1       5    4dx2             10.389228       1.867377
                                                         3.849621       0.670994
                                                         1.388401       1.353441
                                                         0.496955       0.273538
                                                         0.162492       0.006620
                          1       5    4dxy             10.389228       3.234392
                                                         3.849621       1.162195
                                                         1.388401       2.344229
                                                         0.496955       0.473781
                                                         0.162492       0.011466
                          1       5    4dxz             10.389228       3.234392
                                                         3.849621       1.162195
                                                         1.388401       2.344229
                                                         0.496955       0.473781
                                                         0.162492       0.011466
                          1       5    4dy2             10.389228       1.867377
                                                         3.849621       0.670994
                                                         1.388401       1.353441
                                                         0.496955       0.273538
                                                         0.162492       0.006620
                          1       5    4dyz             10.389228       3.234392
                                                         3.849621       1.162195
                                                         1.388401       2.344229
                                                         0.496955       0.473781
                                                         0.162492       0.011466
                          1       5    4dz2             10.389228       1.867377
                                                         3.849621       0.670994
                                                         1.388401       1.353441
                                                         0.496955       0.273538
                                                         0.162492       0.006620

       Atomic covalent radius [Angstrom]:                                  0.730

       Atomic van der Waals radius [Angstrom]:                             1.520

     GTH Potential information for                                    GTH-PBE-q6

       Description:                       Goedecker-Teter-Hutter pseudopotential
                                           Goedecker et al., PRB 54, 1703 (1996)
                                          Hartwigsen et al., PRB 58, 3641 (1998)
                                                      Krack, TCA 114, 145 (2005)

       Gaussian exponent of the core charge distribution:               8.360253
       Electronic configuration (s p d ...):                               2   4

       Parameters of the local part of the GTH pseudopotential:

                          rloc        C1          C2          C3          C4
                        0.244554  -16.667215    2.487311

       Parameters of the non-local part of the GTH pseudopotential:

                   l      r(l)      h(i,j,l)

                   0    0.220956   18.337458
                   1    0.211332


 MOLECULE KIND INFORMATION


 All atoms are their own molecule, skipping detailed information


 TOTAL NUMBERS AND MAXIMUM NUMBERS

  Total number of            - Atomic kinds:                                   2
                             - Atoms:                                        192
                             - Shell sets:                                   192
                             - Shells:                                      1152
                             - Primitive Cartesian functions:               1024
                             - Cartesian basis functions:                   3776
                             - Spherical basis functions:                   3328

  Maximum angular momentum of- Orbital basis functions:                        3
                             - Local part of the GTH pseudopotential:          2
                             - Non-local part of the GTH pseudopotential:      3


 MODULE QUICKSTEP: ATOMIC COORDINATES IN ANGSTROM

   Atom Kind Element         X             Y             Z       Z(eff)     Mass
      1    1 Ti   22      0.000445      0.000324     -0.002417  12.0000  47.8670
      2    1 Ti   22      1.890547      1.890333      4.809586  12.0000  47.8670
      3    1 Ti   22      0.000287      1.890324      2.400110  12.0000  47.8670
      4    1 Ti   22      1.890043      0.000282      7.214867  12.0000  47.8670
      5    1 Ti   22      0.000406      3.776048      0.000648  12.0000  47.8670
      6    1 Ti   22      1.890473     13.238180      4.807693  12.0000  47.8670
      7    1 Ti   22     11.348080      1.890407      2.402217  12.0000  47.8670
      8    1 Ti   22      5.670896      0.000401      7.218049  12.0000  47.8670
      9    1 Ti   22      1.889937      3.776085      7.211811  12.0000  47.8670
     10    1 Ti   22      0.000272     13.238066      2.401951  12.0000  47.8670
     11    1 Ti   22      5.671681      1.890192      4.805689  12.0000  47.8670
     12    1 Ti   22     11.348755      0.000264     -0.004184  12.0000  47.8670
     13    1 Ti   22      3.776254      0.000361     -0.004770  12.0000  47.8670
     14    1 Ti   22     13.238498      1.890207      4.811803  12.0000  47.8670
     15    1 Ti   22     13.238168      0.000357      7.212974  12.0000  47.8670
     16    1 Ti   22      3.775916      1.890150      2.403031  12.0000  47.8670
     17    1 Ti   22      1.890410      5.671372      4.812831  12.0000  47.8670
     18    1 Ti   22      0.000348     11.348773     -0.000437  12.0000  47.8670
     19    1 Ti   22      0.000395      5.671236      2.396914  12.0000  47.8670
     20    1 Ti   22      1.890089     11.348544      7.212853  12.0000  47.8670
     21    1 Ti   22      0.000380      7.568035      0.003498  12.0000  47.8670
     22    1 Ti   22      1.890265      9.462618      4.810089  12.0000  47.8670
     23    1 Ti   22      7.567105      1.890227      2.406026  12.0000  47.8670
     24    1 Ti   22      9.462464      0.000417      7.215399  12.0000  47.8670
     25    1 Ti   22      1.890024      7.567862      7.209007  12.0000  47.8670
     26    1 Ti   22      0.000323      9.462333      2.399703  12.0000  47.8670
     27    1 Ti   22      9.462998      1.890077      4.808906  12.0000  47.8670
     28    1 Ti   22      7.568078      0.000343     -0.007269  12.0000  47.8670
     29    1 Ti   22      3.776353      3.776210     -0.001752  12.0000  47.8670
     30    1 Ti   22     13.238469     13.238105      4.810037  12.0000  47.8670
     31    1 Ti   22     11.348213      5.671457      2.398877  12.0000  47.8670
     32    1 Ti   22      5.671090     11.348652      7.216243  12.0000  47.8670
     33    1 Ti   22     13.238164      3.776226      7.210012  12.0000  47.8670
     34    1 Ti   22      3.776005     13.238016      2.404855  12.0000  47.8670
     35    1 Ti   22      5.671424      5.671179      4.809066  12.0000  47.8670
     36    1 Ti   22     11.348639     11.348638     -0.002157  12.0000  47.8670
     37    1 Ti   22     11.347974     13.238043      2.404157  12.0000  47.8670
     38    1 Ti   22      5.670938      3.776265      7.215186  12.0000  47.8670
     39    1 Ti   22      3.776224     11.348797     -0.002855  12.0000  47.8670
     40    1 Ti   22     13.238373      5.671398      4.814908  12.0000  47.8670
     41    1 Ti   22      5.671689     13.238166      4.803928  12.0000  47.8670
     42    1 Ti   22     11.348770      3.776036     -0.001031  12.0000  47.8670
     43    1 Ti   22     13.238272     11.348530      7.210971  12.0000  47.8670
     44    1 Ti   22      3.776138      5.671104      2.399736  12.0000  47.8670
     45    1 Ti   22      3.776368      7.568129      0.000991  12.0000  47.8670
     46    1 Ti   22     13.238380      9.462682      4.812173  12.0000  47.8670
     47    1 Ti   22      7.567444      5.671344      2.402579  12.0000  47.8670
     48    1 Ti   22      9.462601     11.348664      7.213480  12.0000  47.8670
     49    1 Ti   22     13.238186      7.567969      7.207175  12.0000  47.8670
     50    1 Ti   22      3.776192      9.462335      2.402466  12.0000  47.8670
     51    1 Ti   22      9.462810      5.671168      4.812097  12.0000  47.8670
     52    1 Ti   22      7.567937     11.348660     -0.005458  12.0000  47.8670
     53    1 Ti   22     11.348194      9.462451      2.401655  12.0000  47.8670
     54    1 Ti   22      5.671043      7.567982      7.212450  12.0000  47.8670
     55    1 Ti   22      5.671483      9.462465      4.806274  12.0000  47.8670
     56    1 Ti   22     11.348618      7.567928      0.001795  12.0000  47.8670
     57    1 Ti   22      9.462484      3.776318      7.212461  12.0000  47.8670
     58    1 Ti   22      7.567237     13.237991      2.407836  12.0000  47.8670
     59    1 Ti   22      7.568135      3.776271     -0.004331  12.0000  47.8670
     60    1 Ti   22      9.463162     13.238094      4.807080  12.0000  47.8670
     61    1 Ti   22      7.568067      7.568061     -0.001558  12.0000  47.8670
     62    1 Ti   22      9.462987      9.462572      4.809387  12.0000  47.8670
     63    1 Ti   22      7.567511      9.462413      2.405379  12.0000  47.8670
     64    1 Ti   22      9.462575      7.568065      7.209737  12.0000  47.8670
     65    2 O     8      0.001608      0.001465      1.999462   6.0000  15.9994
     66    2 O     8      1.884560      1.887748      6.804731   6.0000  15.9994
     67    2 O     8      0.001215      1.883885      4.402245   6.0000  15.9994
     68    2 O     8      1.887800      0.001160      9.208616   6.0000  15.9994
     69    2 O     8      1.883134      0.001406      5.212163   6.0000  15.9994
     70    2 O     8      0.000859      1.887738      0.406807   6.0000  15.9994
     71    2 O     8      1.887804      1.884020      2.808711   6.0000  15.9994
     72    2 O     8      0.001474      0.001276      7.617109   6.0000  15.9994
     73    2 O     8      0.001719      3.775842      1.997579   6.0000  15.9994
     74    2 O     8      1.884326     13.237241      6.805074   6.0000  15.9994
     75    2 O     8     11.350809      1.884086      4.401843   6.0000  15.9994
     76    2 O     8      5.672456      0.001221      9.209808   6.0000  15.9994
     77    2 O     8      1.883546      3.775890      5.214145   6.0000  15.9994
     78    2 O     8      0.000891     13.237194      0.406629   6.0000  15.9994
     79    2 O     8      5.672399      1.884343      2.807560   6.0000  15.9994
     80    2 O     8     11.350846      0.001203      7.617361   6.0000  15.9994
     81    2 O     8      3.775919      0.001331      7.619006   6.0000  15.9994
     82    2 O     8     13.237356      1.883792      2.808263   6.0000  15.9994
     83    2 O     8     13.237113      0.001246      9.208892   6.0000  15.9994
     84    2 O     8      3.775657      1.884191      4.400404   6.0000  15.9994
     85    2 O     8      1.884778      5.672374      6.806047   6.0000  15.9994
     86    2 O     8      0.001569     11.350912      1.999187   6.0000  15.9994
     87    2 O     8      0.000886      5.672400      0.405535   6.0000  15.9994
     88    2 O     8      1.883449     11.350900      5.212625   6.0000  15.9994
     89    2 O     8      0.001599      7.566583      2.000129   6.0000  15.9994
     90    2 O     8      1.884695      9.462970      6.803335   6.0000  15.9994
     91    2 O     8      7.566591      1.884379      4.403004   6.0000  15.9994
     92    2 O     8      9.462902      0.001294      9.207090   6.0000  15.9994
     93    2 O     8      1.883727      7.566666      5.211502   6.0000  15.9994
     94    2 O     8      0.001000      9.463074      0.408384   6.0000  15.9994
     95    2 O     8      9.463100      1.884162      2.810000   6.0000  15.9994
     96    2 O     8      7.566573      0.001252      7.616258   6.0000  15.9994
     97    2 O     8      3.770308      0.001487      1.999251   6.0000  15.9994
     98    2 O     8     13.237645      1.887833      6.804834   6.0000  15.9994
     99    2 O     8      0.001362      5.654892      4.401733   6.0000  15.9994
    100    2 O     8      1.887786     11.354436      9.208718   6.0000  15.9994
    101    2 O     8     13.236821      0.001408      5.212517   6.0000  15.9994
    102    2 O     8      3.769592      1.887803      0.406558   6.0000  15.9994
    103    2 O     8      1.888004      5.655437      2.809184   6.0000  15.9994
    104    2 O     8      0.001471     11.354737      7.616983   6.0000  15.9994
    105    2 O     8     11.353974      1.887714      0.406882   6.0000  15.9994
    106    2 O     8      5.653804      0.001558      5.212856   6.0000  15.9994
    107    2 O     8      5.656415      1.887969      6.804501   6.0000  15.9994
    108    2 O     8     11.355493      0.001415      1.999806   6.0000  15.9994
    109    2 O     8      1.887860      3.769921      9.208758   6.0000  15.9994
    110    2 O     8      0.001188     13.237352      4.402066   6.0000  15.9994
    111    2 O     8      0.001508      3.769810      7.617170   6.0000  15.9994
    112    2 O     8      1.887838     13.237445      2.808713   6.0000  15.9994
    113    2 O     8      3.770934      3.775950      1.997419   6.0000  15.9994
    114    2 O     8     13.237618     13.237215      6.805134   6.0000  15.9994
    115    2 O     8     11.350645      5.655346      4.401440   6.0000  15.9994
    116    2 O     8      5.672381     11.354202      9.209894   6.0000  15.9994
    117    2 O     8     13.236733      3.775856      5.214310   6.0000  15.9994
    118    2 O     8      3.769502     13.237141      0.406354   6.0000  15.9994
    119    2 O     8      5.672467      5.656430      2.807864   6.0000  15.9994
    120    2 O     8     11.350891     11.354530      7.617338   6.0000  15.9994
    121    2 O     8     11.354193     13.237265      0.406589   6.0000  15.9994
    122    2 O     8      5.654719      3.776093      5.214500   6.0000  15.9994
    123    2 O     8      3.775969     11.354392      7.618810   6.0000  15.9994
    124    2 O     8     13.237233      5.654920      2.808886   6.0000  15.9994
    125    2 O     8      5.656026     13.237102      6.804572   6.0000  15.9994
    126    2 O     8     11.355050      3.775904      1.997810   6.0000  15.9994
    127    2 O     8     13.237140     11.354651      9.209025   6.0000  15.9994
    128    2 O     8      3.775925      5.655809      4.400123   6.0000  15.9994
    129    2 O     8      5.657360      5.672370      6.805954   6.0000  15.9994
    130    2 O     8     11.355210     11.350928      1.999250   6.0000  15.9994
    131    2 O     8     13.237042      3.769785      9.209014   6.0000  15.9994
    132    2 O     8      3.775617     13.237280      4.400230   6.0000  15.9994
    133    2 O     8     11.353789      5.672350      0.405554   6.0000  15.9994
    134    2 O     8      5.654224     11.350732      5.213068   6.0000  15.9994
    135    2 O     8      3.776021      3.770420      7.618856   6.0000  15.9994
    136    2 O     8     13.237342     13.237412      2.808228   6.0000  15.9994
    137    2 O     8     13.236898     11.350925      5.212828   6.0000  15.9994
    138    2 O     8      3.770098      5.672375      0.405266   6.0000  15.9994
    139    2 O     8      5.672559     13.237403      2.807597   6.0000  15.9994
    140    2 O     8     11.350830      3.769902      7.617335   6.0000  15.9994
    141    2 O     8      3.770349     11.350842      1.998919   6.0000  15.9994
    142    2 O     8     13.237638      5.672487      6.805999   6.0000  15.9994
    143    2 O     8     11.350899     13.237443      4.401699   6.0000  15.9994
    144    2 O     8      5.672408      3.770362      9.209937   6.0000  15.9994
    145    2 O     8      3.770882      7.566665      2.000077   6.0000  15.9994
    146    2 O     8     13.237541      9.463010      6.803292   6.0000  15.9994
    147    2 O     8      7.566549      5.656304      4.402814   6.0000  15.9994
    148    2 O     8      9.462878     11.354375      9.207250   6.0000  15.9994
    149    2 O     8     13.236883      7.566681      5.211681   6.0000  15.9994
    150    2 O     8      3.770020      9.462871      0.408024   6.0000  15.9994
    151    2 O     8      9.462841      5.655827      2.810456   6.0000  15.9994
    152    2 O     8      7.566704     11.354263      7.616194   6.0000  15.9994
    153    2 O     8     11.353874      9.463011      0.408322   6.0000  15.9994
    154    2 O     8      5.655301      7.566654      5.211946   6.0000  15.9994
    155    2 O     8      5.656793      9.462760      6.803176   6.0000  15.9994
    156    2 O     8     11.354916      7.566714      2.000328   6.0000  15.9994
    157    2 O     8      9.462771      3.770326      9.207307   6.0000  15.9994
    158    2 O     8      7.566592     13.237323      4.403014   6.0000  15.9994
    159    2 O     8      7.566708      3.770407      7.616136   6.0000  15.9994
    160    2 O     8      9.463113     13.237402      2.810156   6.0000  15.9994
    161    2 O     8      7.584937      0.001505      1.999001   6.0000  15.9994
    162    2 O     8      9.469055      1.887848      6.805030   6.0000  15.9994
    163    2 O     8      0.001327      9.468777      4.402045   6.0000  15.9994
    164    2 O     8      1.887974      7.583191      9.208416   6.0000  15.9994
    165    2 O     8      9.468172      0.001501      5.212583   6.0000  15.9994
    166    2 O     8      7.582416      1.887970      0.407070   6.0000  15.9994
    167    2 O     8      1.887921      9.468796      2.808714   6.0000  15.9994
    168    2 O     8      0.001563      7.583742      7.617529   6.0000  15.9994
    169    2 O     8      7.584033      3.776111      1.997410   6.0000  15.9994
    170    2 O     8      9.469160     13.237166      6.805226   6.0000  15.9994
    171    2 O     8     11.350823      9.468610      4.401801   6.0000  15.9994
    172    2 O     8      5.672369      7.582296      9.209708   6.0000  15.9994
    173    2 O     8      9.467658      3.775962      5.214387   6.0000  15.9994
    174    2 O     8      7.582761     13.237126      0.406898   6.0000  15.9994
    175    2 O     8      5.672548      9.468300      2.807641   6.0000  15.9994
    176    2 O     8     11.350757      7.583325      7.617721   6.0000  15.9994
    177    2 O     8      3.776165      7.582920      7.619029   6.0000  15.9994
    178    2 O     8     13.237240      9.469001      2.808417   6.0000  15.9994
    179    2 O     8     13.237022      7.583623      9.208624   6.0000  15.9994
    180    2 O     8      3.775748      9.468148      4.400381   6.0000  15.9994
    181    2 O     8      9.468548      5.672450      6.806245   6.0000  15.9994
    182    2 O     8      7.584467     11.350782      1.998730   6.0000  15.9994
    183    2 O     8      7.581526      5.672358      0.405614   6.0000  15.9994
    184    2 O     8      9.468103     11.350874      5.212927   6.0000  15.9994
    185    2 O     8      7.583441      7.566789      1.999832   6.0000  15.9994
    186    2 O     8      9.468605      9.462883      6.803476   6.0000  15.9994
    187    2 O     8      7.566629      9.468160      4.403086   6.0000  15.9994
    188    2 O     8      9.462656      7.582811      9.207069   6.0000  15.9994
    189    2 O     8      9.467667      7.566683      5.211689   6.0000  15.9994
    190    2 O     8      7.582034      9.462796      0.408329   6.0000  15.9994
    191    2 O     8      9.463018      9.468345      2.810180   6.0000  15.9994
    192    2 O     8      7.566791      7.582439      7.616372   6.0000  15.9994



 SCF PARAMETERS         Density guess:                                   RESTART
                        --------------------------------------------------------
                        max_scf:                                              40
                        max_scf_history:                                       0
                        max_diis:                                              4
                        --------------------------------------------------------
                        eps_scf:                                        1.00E-06
                        eps_scf_history:                                0.00E+00
                        eps_diis:                                       1.00E-01
                        eps_eigval:                                     1.00E-05
                        --------------------------------------------------------
                        level_shift [a.u.]:                             0.000000
                        --------------------------------------------------------
                        Outer loop SCF in use 
                        No variables optimised in outer loop
                        eps_scf                                         1.00E-06
                        max_scf                                               60
                        No outer loop optimization
                        step_size                                       5.00E-01

 PW_GRID| Information for grid number                                          1
 PW_GRID| Grid distributed over                                   128 processors
 PW_GRID| Real space group dimensions                                   128    1
 PW_GRID| the grid is blocked:                                                NO
 PW_GRID| Cutoff [a.u.]                                                    300.0
 PW_GRID| spherical cutoff:                                                   NO
 PW_GRID|   Bounds   1           -112     112                Points:         225
 PW_GRID|   Bounds   2           -112     112                Points:         225
 PW_GRID|   Bounds   3            -72      71                Points:         144
 PW_GRID| Volume element (a.u.^3)  0.2035E-02     Volume (a.u.^3)     14833.7304
 PW_GRID| Grid span                                                    FULLSPACE
 PW_GRID|   Distribution                         Average         Max         Min
 PW_GRID|   G-Vectors                            56953.1       57150       56925
 PW_GRID|   G-Rays                                 253.1         254         253
 PW_GRID|   Real Space Points                    56953.1       64800       32400

 PW_GRID| Information for grid number                                          2
 PW_GRID| Number of the reference grid                                         1
 PW_GRID| Grid distributed over                                   128 processors
 PW_GRID| Real space group dimensions                                   128    1
 PW_GRID| the grid is blocked:                                                NO
 PW_GRID| Cutoff [a.u.]                                                    100.0
 PW_GRID| spherical cutoff:                                                   NO
 PW_GRID|   Bounds   1            -67      67                Points:         135
 PW_GRID|   Bounds   2            -67      67                Points:         135
 PW_GRID|   Bounds   3            -40      40                Points:          81
 PW_GRID| Volume element (a.u.^3)  0.1005E-01     Volume (a.u.^3)     14833.7304
 PW_GRID| Grid span                                                    FULLSPACE
 PW_GRID|   Distribution                         Average         Max         Min
 PW_GRID|   G-Vectors                            11533.0       12150       10800
 PW_GRID|   G-Rays                                  85.4          90          80
 PW_GRID|   Real Space Points                    11533.0       21870       10935

 PW_GRID| Information for grid number                                          3
 PW_GRID| Number of the reference grid                                         1
 PW_GRID| Grid distributed over                                   128 processors
 PW_GRID| Real space group dimensions                                     8   16
 PW_GRID| the grid is blocked:                                                NO
 PW_GRID| Cutoff [a.u.]                                                     33.3
 PW_GRID| spherical cutoff:                                                   NO
 PW_GRID|   Bounds   1            -37      37                Points:          75
 PW_GRID|   Bounds   2            -37      37                Points:          75
 PW_GRID|   Bounds   3            -24      23                Points:          48
 PW_GRID| Volume element (a.u.^3)  0.5494E-01     Volume (a.u.^3)     14833.7304
 PW_GRID| Grid span                                                    FULLSPACE
 PW_GRID|   Distribution                         Average         Max         Min
 PW_GRID|   G-Vectors                             2109.4        2475        1725
 PW_GRID|   G-Rays                                  28.1          33          23
 PW_GRID|   Real Space Points                     2109.4        2400        1728

 PW_GRID| Information for grid number                                          4
 PW_GRID| Number of the reference grid                                         1
 PW_GRID| Grid distributed over                                   128 processors
 PW_GRID| Real space group dimensions                                     8   16
 PW_GRID| the grid is blocked:                                                NO
 PW_GRID| Cutoff [a.u.]                                                     11.1
 PW_GRID| spherical cutoff:                                                   NO
 PW_GRID|   Bounds   1            -22      22                Points:          45
 PW_GRID|   Bounds   2            -22      22                Points:          45
 PW_GRID|   Bounds   3            -13      13                Points:          27
 PW_GRID| Volume element (a.u.^3)  0.2713         Volume (a.u.^3)     14833.7304
 PW_GRID| Grid span                                                    FULLSPACE
 PW_GRID|   Distribution                         Average         Max         Min
 PW_GRID|   G-Vectors                              427.1         585         270
 PW_GRID|   G-Rays                                   9.5          13           6
 PW_GRID|   Real Space Points                      427.1         486         270

 POISSON| Solver                                                        PERIODIC
 POISSON| Periodicity                                                        XYZ

 RS_GRID| Information for grid number                                          1
 RS_GRID|   Bounds   1           -112     112                Points:         225
 RS_GRID|   Bounds   2           -112     112                Points:         225
 RS_GRID|   Bounds   3            -72      71                Points:         144
 RS_GRID| Real space distribution over                                  8 groups
 RS_GRID| Real space distribution along direction                              1
 RS_GRID| Border size                                                         26
 RS_GRID| Real space distribution over                                 16 groups
 RS_GRID| Real space distribution along direction                              2
 RS_GRID| Border size                                                         26
 RS_GRID|   Distribution                         Average         Max         Min
 RS_GRID|   Planes                                  80.1          81          80
 RS_GRID|   Distribution                         Average         Max         Min
 RS_GRID|   Planes                                  66.1          67          66

 RS_GRID| Information for grid number                                          2
 RS_GRID|   Bounds   1            -67      67                Points:         135
 RS_GRID|   Bounds   2            -67      67                Points:         135
 RS_GRID|   Bounds   3            -40      40                Points:          81
 RS_GRID| Real space distribution over                                  8 groups
 RS_GRID| Real space distribution along direction                              1
 RS_GRID| Border size                                                         24
 RS_GRID| Real space distribution over                                 16 groups
 RS_GRID| Real space distribution along direction                              2
 RS_GRID| Border size                                                         24
 RS_GRID|   Distribution                         Average         Max         Min
 RS_GRID|   Planes                                  64.9          65          64
 RS_GRID|   Distribution                         Average         Max         Min
 RS_GRID|   Planes                                  56.4          57          56

 RS_GRID| Information for grid number                                          3
 RS_GRID|   Bounds   1            -37      37                Points:          75
 RS_GRID|   Bounds   2            -37      37                Points:          75
 RS_GRID|   Bounds   3            -24      23                Points:          48
 RS_GRID| Real space fully replicated
 RS_GRID| Group size                                                           1

 RS_GRID| Information for grid number                                          4
 RS_GRID|   Bounds   1            -22      22                Points:          45
 RS_GRID|   Bounds   2            -22      22                Points:          45
 RS_GRID|   Bounds   3            -13      13                Points:          27
 RS_GRID| Real space fully replicated
 RS_GRID| Group size                                                           1

 Spin 1

 Number of electrons:                                                        768
 Number of occupied orbitals:                                                768
 Number of molecular orbitals:                                               768

 Spin 2

 Number of electrons:                                                        768
 Number of occupied orbitals:                                                768
 Number of molecular orbitals:                                               768

 Number of orbital functions:                                               3328
 Number of independent orbital functions:                                   3328

 Extrapolation method: initial_guess

 *** WARNING in qs_initial_guess.F:306 :: User requested to restart the    ***
 *** wavefunction from the file named: tio2-RESTART.wfn. This file does    ***
 *** not exist. Please check the existence of the file or change properly  ***
 *** the value of the keyword WFN_RESTART_FILE_NAME. Calculation continues ***
 *** using ATOMIC GUESS.                                                   ***


 Atomic guess: The first density matrix is obtained in terms of atomic orbitals
               and electronic configurations assigned to each atomic kind

 Guess for atomic kind: Ti

 Electronic structure
    Total number of core electrons                                         10.00
    Total number of valence electrons                                      12.00
    Total number of electrons                                              22.00
    Multiplicity                                                   not specified
    S   [  2.00  2.00] 2.00  2.00
    P   [  6.00] 6.00
    D      2.00


 *******************************************************************************
                  Iteration          Convergence                     Energy [au]
 *******************************************************************************
                          1         2.59099                     -56.573945749309
                          2        0.737518                     -57.461623245624
                          3        0.123244E-01                 -57.676656834797
                          4        0.338536E-02                 -57.676690535970
                          5        0.252157E-03                 -57.676697146183
                          6        0.162704E-05                 -57.676697160103
                          7        0.846593E-06                 -57.676697160104

 Energy components [Hartree]           Total Energy ::          -57.676697160104
                                        Band Energy ::          -13.440549799540
                                     Kinetic Energy ::           25.008468428381
                                   Potential Energy ::          -82.685165588485
                                      Virial (-V/T) ::            3.306286661467
                                        Core Energy ::          -97.155838374470
                                          XC Energy ::           -6.919409696495
                                     Coulomb Energy ::           46.398550910862
                       Total Pseudopotential Energy ::         -122.259340742080
                       Local Pseudopotential Energy ::         -118.928992669456
                    Nonlocal Pseudopotential Energy ::           -3.330348072625
                                        Confinement ::            0.950339392289

 Orbital energies  State     L     Occupation   Energy[a.u.]          Energy[eV]

                       1     0          2.000      -2.312566          -62.928123
                       2     0          2.000      -0.123060           -3.348633

                       1     1          6.000      -1.385567          -37.703193

                       1     2          2.000      -0.127948           -3.481643


 Total Electron Density at R=0:                                         0.004726

 Guess for atomic kind: O

 Electronic structure
    Total number of core electrons                                          2.00
    Total number of valence electrons                                       6.00
    Total number of electrons                                               8.00
    Multiplicity                                                   not specified
    S   [  2.00] 2.00
    P      4.00


 *******************************************************************************
                  Iteration          Convergence                     Energy [au]
 *******************************************************************************
                          1        0.702811                     -15.577904332270
                          2        0.612408                     -15.588447180504
                          3        0.955344E-02                 -15.655871208406
                          4        0.223754E-02                 -15.655885053552
                          5        0.157183E-02                 -15.655885461027
                          6        0.124953E-02                 -15.655885607150
                          7        0.312011E-06                 -15.655885858066

 Energy components [Hartree]           Total Energy ::          -15.655885858066
                                        Band Energy ::           -2.983128125584
                                     Kinetic Energy ::           11.754765134683
                                   Potential Energy ::          -27.410650992749
                                      Virial (-V/T) ::            2.331875684345
                                        Core Energy ::          -26.153522949072
                                          XC Energy ::           -3.157392363346
                                     Coulomb Energy ::           13.655029454351
                       Total Pseudopotential Energy ::          -37.943026860963
                       Local Pseudopotential Energy ::          -39.220419683052
                    Nonlocal Pseudopotential Energy ::            1.277392822089
                                        Confinement ::            0.347387772086

 Orbital energies  State     L     Occupation   Energy[a.u.]          Energy[eV]

                       1     0          2.000      -0.861522          -23.443215

                       1     1          4.000      -0.315021           -8.572154


 Total Electron Density at R=0:                                         0.000093

 Spin 1
 Re-scaling the density matrix to get the right number of electrons for spin 1
                  # Electrons              Trace(P)               Scaling factor
                          768               768.001                        1.000

 Spin 2
 Re-scaling the density matrix to get the right number of electrons for spin 2
                  # Electrons              Trace(P)               Scaling factor
                          768               768.001                        1.000


 SCF WAVEFUNCTION OPTIMIZATION

  ----------------------------------- OT ---------------------------------------
  Minimizer      : DIIS                : direct inversion
                                         in the iterative subspace
                                         using   7 DIIS vectors
                                         safer DIIS on
  Preconditioner : FULL_SINGLE_INVERSE : inversion of 
                                         H + eS - 2*(Sc)(c^T*H*c+const)(Sc)^T
  Precond_solver : DEFAULT
  stepsize       :    0.08000000                  energy_gap     :    0.08000000
  eps_taylor     :   0.10000E-15                  max_taylor     :             4
  ----------------------------------- OT ---------------------------------------

  Step     Update method      Time    Convergence         Total energy    Change
  ------------------------------------------------------------------------------
     1 OT DIIS     0.80E-01    2.1     0.01012188     -5663.8793876165 -5.66E+03
     2 OT DIIS     0.80E-01    1.5     0.00729538     -5699.3695659228 -3.55E+01
     3 OT DIIS     0.80E-01    1.5     0.00459532     -5732.7668403305 -3.34E+01
     4 OT DIIS     0.80E-01    1.5     0.00366383     -5742.9097725208 -1.01E+01
     5 OT DIIS     0.80E-01    1.5     0.00267611     -5754.6886494078 -1.18E+01
     6 OT DIIS     0.80E-01    1.5     0.00220265     -5761.6939875844 -7.01E+00
     7 OT DIIS     0.80E-01    1.5     0.00183288     -5768.0366050411 -6.34E+00
     8 OT DIIS     0.80E-01    1.5     0.00147220     -5773.9725018498 -5.94E+00
     9 OT DIIS     0.80E-01    1.5     0.00127544     -5777.6343870228 -3.66E+00
    10 OT DIIS     0.80E-01    1.5     0.00099340     -5780.9558352037 -3.32E+00
    11 OT DIIS     0.80E-01    1.5     0.00090607     -5781.7689973995 -8.13E-01
    12 OT DIIS     0.80E-01    1.5     0.00073184     -5783.6122009210 -1.84E+00
    13 OT DIIS     0.80E-01    1.5     0.00060860     -5784.9007072855 -1.29E+00
    14 OT DIIS     0.80E-01    1.5     0.00050437     -5785.8556107003 -9.55E-01
    15 OT DIIS     0.80E-01    1.5     0.00046006     -5786.3347974899 -4.79E-01
    16 OT DIIS     0.80E-01    1.5     0.00039111     -5786.8638921575 -5.29E-01
    17 OT DIIS     0.80E-01    1.5     0.00037309     -5787.0489626062 -1.85E-01
    18 OT DIIS     0.80E-01    1.5     0.00031804     -5787.4251541774 -3.76E-01
    19 OT DIIS     0.80E-01    1.4     0.00027776     -5787.6741979964 -2.49E-01
    20 OT DIIS     0.80E-01    1.5     0.00026256     -5787.7968856412 -1.23E-01
    21 OT DIIS     0.80E-01    1.5     0.00024686     -5787.9615669878 -1.65E-01
    22 OT DIIS     0.80E-01    1.4     0.00023320     -5788.0509156055 -8.93E-02
    23 OT DIIS     0.80E-01    1.5     0.00020295     -5788.2596826167 -2.09E-01
    24 OT SD       0.80E-01    1.5     0.00017983     -5788.4174044039 -1.58E-01
    25 OT DIIS     0.80E-01    1.5     0.00017030     -5788.4302371713 -1.28E-02
    26 OT DIIS     0.80E-01    1.5     0.00014557     -5788.5327335696 -1.02E-01
    27 OT DIIS     0.80E-01    1.5     0.00013813     -5788.5772512919 -4.45E-02
    28 OT DIIS     0.80E-01    1.5     0.00012949     -5788.6294310546 -5.22E-02
    29 OT DIIS     0.80E-01    1.5     0.00012155     -5788.6914287842 -6.20E-02
    30 OT DIIS     0.80E-01    1.5     0.00011179     -5788.7300690215 -3.86E-02
    31 OT DIIS     0.80E-01    1.5     0.00010585     -5788.7580429909 -2.80E-02
    32 OT DIIS     0.80E-01    1.5     0.00009998     -5788.7880177689 -3.00E-02
    33 OT DIIS     0.80E-01    1.5     0.00009599     -5788.8160943016 -2.81E-02
    34 OT DIIS     0.80E-01    1.5     0.00009264     -5788.8254139713 -9.32E-03
    35 OT DIIS     0.80E-01    1.5     0.00008333     -5788.8658802172 -4.05E-02
    36 OT DIIS     0.80E-01    1.4     0.00007871     -5788.8874765988 -2.16E-02
    37 OT DIIS     0.80E-01    1.5     0.00007476     -5788.9102235726 -2.27E-02
    38 OT DIIS     0.80E-01    1.4     0.00007212     -5788.9172559891 -7.03E-03
    39 OT DIIS     0.80E-01    1.5     0.00007132     -5788.9327408620 -1.55E-02
    40 OT DIIS     0.80E-01    1.5     0.00007082     -5788.9381694370 -5.43E-03

  Leaving inner SCF loop after reaching    40 steps.


  Electronic density on regular grids:      -1535.9999999999        0.0000000001
  Core density on regular grids:             1535.9999999995       -0.0000000005
  Total charge density on r-space grids:       -0.0000000004
  Total charge density g-space grids:          -0.0000000004

  Overlap energy of the core charge distribution:               0.00000000000336
  Self energy of the core charge distribution:             -12156.89556134359555
  Core Hamiltonian energy:                                   3244.64871952262092
  Hartree energy:                                            4043.37951194241305
  Exchange-correlation energy:                               -920.07083955843837

  Total energy:                                             -5788.93816943699676

  outer SCF iter =    1 RMS gradient =   0.71E-04 energy =      -5788.9381694370

  ----------------------------------- OT ---------------------------------------
  Minimizer      : DIIS                : direct inversion
                                         in the iterative subspace
                                         using   7 DIIS vectors
                                         safer DIIS on
  Preconditioner : FULL_SINGLE_INVERSE : inversion of 
                                         H + eS - 2*(Sc)(c^T*H*c+const)(Sc)^T
  Precond_solver : DEFAULT
  stepsize       :    0.08000000                  energy_gap     :    0.08000000
  eps_taylor     :   0.10000E-15                  max_taylor     :             4
  ----------------------------------- OT ---------------------------------------

  Step     Update method      Time    Convergence         Total energy    Change
  ------------------------------------------------------------------------------
     1 OT DIIS     0.80E-01    3.7     0.00020263     -5788.9492150616 -1.10E-02
     2 OT DIIS     0.80E-01    1.4     0.00018333     -5788.9649542904 -1.57E-02
     3 OT DIIS     0.80E-01    1.4     0.00017050     -5788.9885357162 -2.36E-02
[...]
 flops    13 x     1 x    26           1605959680       0.0%    100.0%      0.0%     
 flops   416 x    33 x   208           2923954176       0.0%    100.0%      0.0%     
 flops    32 x    32 x   208           8178892800       0.0%    100.0%      0.0%     
 flops    26 x    32 x    32           8178892800       0.0%    100.0%      0.0%     
 flops    13 x    32 x    32           8178892800       0.0%    100.0%      0.0%     
 flops    13 x    13 x    32         103922204672       0.0%    100.0%      0.0%     
 flops    26 x    13 x    32         106325606400       0.0%    100.0%      0.0%     
 flops    13 x    26 x    32         106325606400       0.0%    100.0%      0.0%     
 flops    26 x    26 x    32         107986944000       0.0%    100.0%      0.0%     
 flops    96 x    32 x    32         126433099776       0.0%    100.0%      0.0%     
 flops    13 x    13 x    64         207844409344       0.0%    100.0%      0.0%     
 flops    26 x    13 x    64         212651212800       0.0%    100.0%      0.0%     
 flops    13 x    26 x    64         212651212800       0.0%    100.0%      0.0%     
 flops    26 x    26 x    64         215973888000       0.0%    100.0%      0.0%     
 flops    96 x    64 x    32         252866199552       0.0%    100.0%      0.0%     
 flops    96 x    32 x    64         252866199552       0.0%    100.0%      0.0%     
 flops   416 x    32 x    32         310579822592       0.0%    100.0%      0.0%     
 flops    96 x    64 x    64         505732399104       0.0%    100.0%      0.0%     
 flops   416 x    64 x    32         621159645184       0.0%    100.0%      0.0%     
 flops   416 x    32 x    64         621159645184       0.0%    100.0%      0.0%     
 flops    96 x    32 x   208         757774417920       0.0%    100.0%      0.0%     
 flops   416 x    32 x   208         859110899712       0.0%    100.0%      0.0%     
 flops   416 x    64 x    64        1242319290368       0.0%    100.0%      0.0%     
 flops    13 x    32 x    13        1297836933120       0.0%    100.0%      0.0%     
 flops    26 x    32 x    26        1339702640640       0.0%    100.0%      0.0%     
 flops    26 x    32 x    13        1339702640640       0.0%    100.0%      0.0%     
 flops    13 x    32 x    26        1339702640640       0.0%    100.0%      0.0%     
 flops    96 x    64 x   208        1516693880832       0.0%    100.0%      0.0%     
 flops   416 x    64 x   208        1723892498432       0.0%    100.0%      0.0%     
 flops inhomo. stacks                     2850164     100.0%      0.0%      0.0%
 flops total                        15.420092E+12       0.0%    100.0%      0.0%
 flops max/rank                    159.205867E+09       0.0%    100.0%      0.0%
 matmuls inhomo. stacks                      4122     100.0%      0.0%      0.0%
 matmuls total                          335288954       0.0%    100.0%      0.0%
 number of processed stacks               9552730       0.0%    100.0%      0.0%
 average stack size                                     1.0      35.1       0.0
 marketing flops                    16.778376E+12
 -------------------------------------------------------------------------------
 # multiplications                           5183
 max memory usage/rank             347.021312E+06
 # max total images/rank                        2
 # max 3D layers                                1
 # MPI messages exchanged                19239296
 MPI messages size (bytes):
  total size                         1.919876E+12
  min size                           0.000000E+00
  max size                         692.224000E+03
  average size                      99.789320E+03
 MPI breakdown and total messages size (bytes):
             size <=      128             6104896                   147040
       128 < size <=     8192             1098976               7661039488
      8192 < size <=    32768             3929312              89336521152
     32768 < size <=   131072             4339072             331501600768
    131072 < size <=  4194304             3767040            1491405926400
   4194304 < size <= 16777216                   0                        0
  16777216 < size                               0                        0
 -------------------------------------------------------------------------------

 *** WARNING in dbcsr_mm.F:301 :: Using a non-square number of MPI ranks ***
 *** might lead to poor performance. Used ranks: 128 Suggested: 121 256  ***

 -------------------------------------------------------------------------------
 -                                                                             -
 -                      DBCSR MESSAGE PASSING PERFORMANCE                      -
 -                                                                             -
 -------------------------------------------------------------------------------
 ROUTINE             CALLS      AVE VOLUME [Bytes]
 MP_Bcast               50                     12.
 MP_Allreduce        27098                     25.
 MP_Alltoall         18441                  28764.
 MP_ISend           326344                  49500.
 MP_IRecv           325788                  49026.
 -------------------------------------------------------------------------------

 -------------------------------------------------------------------------------
 -                                                                             -
 -                                DBM STATISTICS                               -
 -                                                                             -
 -------------------------------------------------------------------------------
    M  x    N  x    K                                          COUNT     PERCENT
 -------------------------------------------------------------------------------

 -------------------------------------------------------------------------------
 -                                                                             -
 -                                GRID STATISTICS                              -
 -                                                                             -
 -------------------------------------------------------------------------------
 LP    KERNEL             BACKEND                              COUNT     PERCENT
 5     collocate ortho    CPU                               22876448      25.39%
 5     integrate ortho    CPU                               22563072      25.05%
 6     collocate ortho    CPU                               11702776      12.99%
 6     integrate ortho    CPU                               11542464      12.81%
 4     collocate ortho    CPU                               10462506      11.61%
 4     integrate ortho    CPU                               10319184      11.45%
 0     integrate general  CPU                                 393216       0.44%
 0     collocate general  CPU                                 221184       0.25%
 2     collocate ortho    CPU                                   2560       0.00%
 3     collocate ortho    CPU                                   1536       0.00%
 -------------------------------------------------------------------------------

 MEMORY| Estimated peak process memory [MiB]                                 331

 -------------------------------------------------------------------------------
 ----                             MULTIGRID INFO                            ----
 -------------------------------------------------------------------------------
 count for grid        1:        1287226          cutoff [a.u.]          300.00
 count for grid        2:         980924          cutoff [a.u.]          100.00
 count for grid        3:         793804          cutoff [a.u.]           33.33
 count for grid        4:         536951          cutoff [a.u.]           11.11
 total gridlevel count  :        3598905

 -------------------------------------------------------------------------------
 -                                                                             -
 -                         MESSAGE PASSING PERFORMANCE                         -
 -                                                                             -
 -------------------------------------------------------------------------------

 ROUTINE             CALLS      AVE VOLUME [Bytes]
 MP_Group                4
 MP_Bcast             8444                  18977.
 MP_Allreduce        22461                    454.
 MP_Sync               854
 MP_Alltoall          3007                1688392.
 MP_SendRecv         38100                  11544.
 MP_ISendRecv        36576                  11544.
 MP_Wait             54320
 MP_comm_split         262
 MP_ISend            32164                  77921.
 MP_IRecv            32104                  78063.
 MP_Write_All            6                 355816.
 -------------------------------------------------------------------------------


 -------------------------------------------------------------------------------
 -                                                                             -
 -                           R E F E R E N C E S                               -
 -                                                                             -
 -------------------------------------------------------------------------------
 
 CP2K version 2024.3, the CP2K developers group (2024).
 CP2K is freely available from https://www.cp2k.org/ .
 
 T. D. Kuehne, M. Iannuzzi, M. Del Ben, V. V. Rybkin, P. Seewald, F. Stein, T. 
 Laino, R. Z. Khaliullin, O. Schuett, F. Schiffmann, D. Golze, J. Wilhelm, S. 
 Chulkov, M. H. Bani-Hashemian, V. Weber, U. Borstnik, M. Taillefumier, A. S. 
 Jakobovits, A. Lazzaro, H. Pabst, T. Mueller, R. Schade, M. Guidon, S. 
 Andermatt, N. Holmberg, G. K. Schenter, A. Hehn, A. Bussy, F. Belleflamme, G. 
 Tabacchi, A. Gloess, M. Lass, I. Bethune, C. J. Mundy, C. Plessl, M. Watkins, 
 J. VandeVondele, M. Krack, J. Hutter.
 J. Chem. Phys. 152, 194103 (2020).
 CP2K: An electronic structure and molecular dynamics software package - 
 Quickstep: Efficient and accurate electronic structure calculations.
 https://doi.org/10.1063/5.0007045

 O. Schuett, P. Messmer, J. Hutter, J. VandeVondele.
 Electronic Structure Calculations on Graphics Processing Units, 173-190 (2016).
 GPU-Accelerated Sparse Matrix-Matrix Multiplication for Linear Scaling Density 
 Functional Theory.
 https://doi.org/10.1002/9781118670712.ch8

 A. Heinecke, G. Henry, M. Hutchinson, H. Pabst.
 Proceedings of Intl. Supercomputing Conference, 981-991 (2016).
 LIBXSMM: Accelerating Small Matrix Multiplications by Runtime Code Generation.
 https://doi.org/10.1109/SC.2016.83

 J. Hutter, M. Iannuzzi, F. Schiffmann, J. VandeVondele.
 WIREs Comput Mol Sci. 4, 15-25 (2014).
 CP2K: atomistic simulations of condensed matter systems.
 https://doi.org/10.1002/wcms.1159

 U. Borstnik, J. VandeVondele, V. Weber, J. Hutter.
 Parallel Comput. 40, 47-58 (2014).
 Sparse matrix multiplication: The distributed block-compressed sparse row 
 library.
 https://doi.org/10.1016/j.parco.2014.03.012

 A. Marek, V. Blum, R. Johanni, V. Havu, B. Lang, T. Auckenthaler, A. Heinecke, 
 H. Bungartz, H. Lederer.
 J. Phys. Condens. Matter 26, 213201 (2014).
 The ELPA library: scalable parallel eigenvalue solutions for electronic 
 structure theory and computational science.
 https://doi.org/10.1088/0953-8984/26/21/213201

 J. VandeVondele, J. Hutter.
 J. Chem. Phys. 127, 114105 (2007).
 Gaussian basis sets for accurate calculations on molecular systems in gas and 
 condensed phases.
 https://doi.org/10.1063/1.2770708

 J. VandeVondele, M. Krack, F. Mohamed, M. Parrinello, T. Chassaing, J. Hutter.
 Comput. Phys. Commun. 167, 103-128 (2005).
 QUICKSTEP: Fast and accurate density functional calculations using a mixed 
 Gaussian and plane waves approach.
 https://doi.org/10.1016/j.cpc.2004.12.014

 M. Krack.
 Theor. Chem. Acc. 114, 145-152 (2005).
 Pseudopotentials for H to Kr optimized for gradient-corrected 
 exchange-correlation functionals.
 https://doi.org/10.1007/s00214-005-0655-y

 M. Frigo, S. G. Johnson.
 Proc. IEEE 93, 216-231 (2005).
 The design and implementation of FFTW3.
 https://doi.org/10.1109/JPROC.2004.840301

 J. VandeVondele, J. Hutter.
 J. Chem. Phys. 118, 4365-4369 (2003).
 An efficient orbital transformation method for electronic structure 
 calculations.
 https://doi.org/10.1063/1.1543154

 C. Hartwigsen, S. Goedecker, J. Hutter.
 Phys. Rev. B 58, 3641-3662 (1998).
 Relativistic separable dual-space Gaussian pseudopotentials from H to Rn.
 https://doi.org/10.1103/PhysRevB.58.3641

 G. Lippert, J. Hutter, M. Parrinello.
 Mol. Phys. 92, 477-487 (1997).
 A hybrid Gaussian and plane wave density functional scheme.
 https://doi.org/10.1080/002689797170220

 S. Goedecker, M. Teter, J. Hutter.
 Phys. Rev. B 54, 1703-1710 (1996).
 Separable dual-space Gaussian pseudopotentials.
 https://doi.org/10.1103/PhysRevB.54.1703

 J. P. Perdew, K. Burke, M. Ernzerhof.
 Phys. Rev. Lett. 77, 3865-3868 (1996).
 Generalized gradient approximation made simple.
 https://doi.org/10.1103/PhysRevLett.77.3865


 -------------------------------------------------------------------------------
 -                                                                             -
 -                                T I M I N G                                  -
 -                                                                             -
 -------------------------------------------------------------------------------
 SUBROUTINE                       CALLS  ASD         SELF TIME        TOTAL TIME
                                MAXIMUM       AVERAGE  MAXIMUM  AVERAGE  MAXIMUM
 CP2K                                 1  1.0    0.074    0.090  118.444  118.450
 qs_energies                          1  2.0    0.007    0.011  117.836  117.841
 scf_env_do_scf                       1  3.0    0.005    0.010  106.285  106.288
 scf_env_do_scf_inner_loop           72  4.0    0.008    0.022  103.162  103.225
 qs_ks_update_qs_env                 74  5.0    0.001    0.002   50.670   50.798
 rebuild_ks_matrix                   72  6.0    0.002    0.003   50.569   50.697
 qs_ks_build_kohn_sham_matrix        72  7.0    0.017    0.022   50.567   50.694
 sum_up_and_integrate                72  8.0    0.006    0.008   31.654   31.671
 integrate_v_rspace                 144  9.0    0.006    0.008   31.564   31.606
 qs_rho_update_rho_low               73  5.0    0.001    0.002   30.064   30.074
 calculate_rho_elec                 146  6.0    0.054    0.062   30.063   30.073
 dbcsr_multiply_generic            5183  9.2    0.192    0.199   24.877   25.559
 qs_scf_new_mos                      72  5.0    0.000    0.001   24.065   24.248
 qs_scf_loop_do_ot                   72  6.0    0.001    0.003   24.064   24.247
 grid_integrate_task_list           144 10.0   22.998   23.787   22.998   23.787
 ot_scf_mini                         72  7.0    0.003    0.005   22.479   22.612
 grid_collocate_task_list           146  7.0   21.679   22.598   21.679   22.598
 multiply_cannon                   5183 10.2    0.802    0.850   16.531   19.188
 fft_wrap_pw1pw2                   2407 10.3    0.047    0.058   15.911   17.885
 fft_wrap_pw1pw2_300               1525 11.8    0.599    0.675   14.770   16.773
 multiply_cannon_loop              5183 11.2    0.372    0.392   14.355   16.690
 qs_vxc_create                       72  8.0    0.002    0.004   15.151   15.270
 xc_vxc_pw_create                    72  9.0    0.276    0.358   15.149   15.269
 fft3d_ps                          2407 12.3    4.753    5.285   12.535   14.898
 ot_mini                            214  6.7    0.007    0.009   12.935   13.103
 xc_pw_derive                       864 11.0    0.007    0.009   10.242   12.020
 multiply_cannon_multrec          82928 12.2    6.769   10.751    6.786   10.770
 mp_waitall_1                    620616 13.3    7.176   10.530    7.176   10.530
 mp_alltoall_z22v                  2407 14.3    6.463   10.072    6.463   10.072
 scf_post_calculation_gpw             1  3.0    0.005    0.008    9.525    9.529
 qs_ot_get_derivative               216  8.3    0.001    0.002    9.334    9.427
 qs_ot_get_p                        294  7.0    0.004    0.005    9.023    9.337
 multiply_cannon_metrocomm3       82928 12.2    0.201    0.208    4.949    8.855
 density_rs2pw                      146  7.0    0.011    0.013    7.578    8.345
 xc_rho_set_and_dset_create          72 10.0    0.247    0.411    7.861    8.342
 xc_pw_divergence                   144 10.0    0.003    0.004    6.774    8.164
 potential_pw2rs                    144 10.0    0.012    0.013    7.351    7.405
 qs_ot_p2m_diag                     258  7.9    0.054    0.073    6.625    6.668
 yz_to_x                            877 13.4    0.371    0.517    3.689    6.100
 qs_ot_get_derivative_diag          184  9.3    0.004    0.005    5.580    5.666
 cp_dbcsr_syevd                     258  8.9    0.075    0.083    5.588    5.592
 make_lumo_gpw                        1  4.0    0.002    0.002    5.463    5.464
 ot_eigensolver                       2  5.0    0.003    0.004    5.443    5.445
 transfer_pw2rs                     578 11.0    0.008    0.009    5.404    5.427
 make_m2s                         10366 10.2    0.143    0.152    5.111    5.359
 transfer_rs2pw                     602  7.9    0.011    0.015    4.491    5.238
 cp_fm_diag_elpa                    124 10.9    0.001    0.003    5.184    5.203
 cp_fm_redistribute_end             262 10.9    2.619    5.160    2.638    5.173
 cp_fm_diag_elpa_base               124 11.9    2.476    4.962    2.489    4.997
 mp_waitany                       14200 11.4    3.766    4.938    3.766    4.938
 x_to_yz                            942 13.7    0.624    0.826    3.727    4.785
 make_images                      10366 11.2    0.279    0.306    4.134    4.355
 transfer_pw2rs_300                 146 11.9    1.833    1.938    3.728    3.940
 mp_sum_l                         25114 10.2    2.075    3.712    2.075    3.712
 transfer_rs2pw_300                 152  8.9    1.076    1.393    2.908    3.686
 apply_preconditioner_dbcsr         224  9.3    0.001    0.001    2.830    3.181
 apply_single                       224 10.3    0.001    0.001    2.830    3.180
 write_available_results              1  4.0    0.003    0.004    3.121    3.124
 init_scf_loop                        2  4.0    0.004    0.005    3.081    3.088
 write_mo_free_results                1  5.0    0.139    0.146    3.079    3.084
 ot_diis_step                        72  9.0    0.015    0.018    2.953    2.956
 mp_irecv_dv                     172835 13.2    0.841    2.693    0.841    2.693
 mp_alltoall_d11v                  4043 11.6    1.956    2.691    1.956    2.691
 multiply_cannon_metrocomm4       77745 12.2    0.196    0.202    0.936    2.681
 xc_functional_eval                  72 11.0    0.001    0.002    2.309    2.658
 pbe_lsd_eval                        72 12.0    2.308    2.657    2.308    2.657
 -------------------------------------------------------------------------------

 The number of warnings for this run is : 3
 
 -------------------------------------------------------------------------------
  **** **** ******  **  PROGRAM ENDED AT                 2025-06-17 07:50:57.719
 ***** ** ***  *** **   PROGRAM RAN ON                                 nid004964
 **    ****   ******    PROGRAM RAN BY                                    cahart
 ***** **    ** ** **   PROGRAM PROCESS ID                                 55821
  **** **  *******  **  PROGRAM STOPPED IN /mnt/lustre/a2fs-work2/work/e05/e05/c
                                           ahart/postdoc2/work/group/tio2/anatas
                                           e/cell-441/geo-opt/mp-390/neutral-fro
                                           m-hole/pbe-u-o/pbe
