     192
 i =        1, E =     -5781.5602730823
Ti        -0.0631254815        0.0942758469        0.0654372115
Ti         1.8666658447        1.9236201430        4.8990482658
Ti         0.0469411554        2.0299998437        2.5305118777
Ti         1.8640713519       -0.0465018748        7.1728177917
Ti        -0.0336166939        3.8289934193       -0.0534416182
Ti         1.9497554454       13.1919753590        4.8336531195
Ti        11.2881598039        1.9808256434        2.4507877504
Ti         5.6072652957       -0.0901312425        7.2229705615
Ti         1.9052835515        3.8181883437        7.2355919942
Ti         0.0252323908       13.3468382532        2.4744849056
Ti         5.6780134108        1.8355853474        4.8274498963
Ti        11.3029196384        0.1154440320       -0.0448029852
Ti         3.6769719029        0.0968643817        0.0488217717
Ti        13.1229691113        1.7700421651        4.7045842759
Ti        13.2665733543       -0.0451022814        7.1547186286
Ti         3.7508294639        1.8028032993        2.5217328576
Ti         1.9715537066        5.6386691436        4.8509676548
Ti         0.0021661218       11.5712921235        0.0031968469
Ti        -0.0222961040        5.7231858002        2.4873043961
Ti         1.8990604087       11.3182871576        7.3610667890
Ti         0.0699302314        7.4986155665        0.0518787089
Ti         2.0397813408        9.5182388925        4.9044004834
Ti         7.4988659426        1.9568659671        2.3512142935
Ti         9.4689953848       -0.1311370068        7.2262739532
Ti         1.9467718820        7.5787687430        7.1609977105
Ti         0.1327009477        9.5811706738        2.4791231840
Ti         9.3285232569        1.8086163189        4.7677400917
Ti         7.4644842816       -0.0615984628       -0.0794068759
Ti         3.7294642189        3.7831644141       -0.0064384926
Ti        13.2370149401       13.1250234990        4.7427390530
Ti        11.3747771193        5.7264665414        2.3765221563
Ti         5.6787737971       11.3257304541        7.1524875651
Ti        13.1722025466        3.6799690265        7.2407713633
Ti         3.7726806696       13.1624011666        2.4441032711
Ti         5.6795852560        5.7199909524        4.8436053456
Ti        11.2226088012       11.3897642508        0.1078606572
Ti        11.2851903979       13.3342846083        2.3542604845
Ti         5.6585979983        3.7267949613        7.1291228850
Ti         3.8830262905       11.4219349149        0.0417979529
Ti        13.2874877039        5.5839005829        4.9025459205
Ti         5.7974965875       13.2085318288        4.8101105617
Ti        11.2682032426        3.7903426795       -0.0768942930
Ti        13.0946889304       11.3813631798        7.2645456359
Ti         3.7918170000        5.6095245759        2.3935805055
Ti         3.7989475233        7.5569748406        0.0455548840
Ti        13.3028749340        9.4209061560        4.8374586214
Ti         7.5202138838        5.6770990512        2.3894812248
Ti         9.4261345943       11.1424780553        7.1732095309
Ti        13.3044101674        7.5414089138        7.2323732102
Ti         3.8837699292        9.4432809035        2.3385184155
Ti         9.5209875414        5.5607839372        4.7066117730
Ti         7.5322052869       11.3434378256        0.0699717809
Ti        11.4044858818        9.4484010988        2.4127028188
Ti         5.6600446452        7.6064457870        7.2008118472
Ti         5.7789377013        9.4231771922        4.7425428949
Ti        11.3219857186        7.5740743210        0.0062819516
Ti         9.4275538327        3.6452324570        7.1665656077
Ti         7.5400035456       13.3080734108        2.4065406354
Ti         7.4636840862        3.7983568737       -0.0643316071
Ti         9.5119549080       13.2423572499        4.7812963364
Ti         7.5986428557        7.5336992392       -0.0565489073
Ti         9.5302541708        9.3932926149        4.7597881181
Ti         7.6385037833        9.4172499814        2.3231737164
Ti         9.5153724760        7.3581078394        7.1444688584
O         0.0551890814        0.0823984371        2.0913224614
O         1.6674083175        1.9360831592        6.7378763042
O        -0.0704746633        2.0003291848        4.4140296207
O         1.7985015125        0.1484420274        9.2361243282
O         1.8080847088       -0.0174280204        5.2609331479
O        -0.1508887992        2.0055175971        0.4926892260
O         1.8667797798        2.1766671696        2.8330772364
O        -0.0706002769       -0.0501497704        7.6232391259
O        -0.0295673542        3.9094580142        2.0823912840
O         1.9946855343       13.2703519758        6.8236020121
O        11.2875018385        1.8275075214        4.3147356432
O         5.6320540634       -0.0209111027        9.2662197314
O         2.1119442903        3.7577379741        5.1794423650
O         0.0532099587       13.3710204582        0.4378860319
O         5.6317886606        1.8523451752        2.8370704757
O        11.2850645326        0.0674983904        7.5633211960
O         3.7116136995        0.1180319693        7.6909433435
O        13.1896090319        1.8726108810        2.8313003200
O        13.1743856114       -0.1061907476        9.2169336923
O         3.7108122856        1.6491850631        4.3773683706
O         1.9081980410        5.6230076403        6.7415634008
O         0.0587754407       11.4541337359        1.9177665323
O         0.0844301541        5.7197312877        0.4669594508
O         1.9147854103       11.3168249030        5.2359809530
O         0.1227362409        7.7234765860        1.9512802727
O         2.1593960084        9.4636223341        6.7782988705
O         7.4569391591        1.8632907102        4.3602413326
O         9.4161261872        0.0364766307        9.2000967467
O         1.8229322406        7.5680037184        5.2748859681
O         0.1117371851        9.5675001671        0.2717779438
O         9.3700468418        2.0410449101        2.8407226373
O         7.4833435108       -0.1603825172        7.6999815165
O         3.7492996106        0.0575724459        2.0370682720
O        13.2186723550        1.8490734150        6.7823001933
O         0.0047886070        5.6053413797        4.4882634183
O         1.9279164792       11.3544156083        9.2655837027
O        13.1723591833       -0.0301395550        5.1322591759
O         3.7069367848        1.9541722254        0.4341471162
O         1.9460828082        5.8030423326        2.9118739648
O         0.0973707006       11.4252389012        7.5682439988
O        11.3474020609        2.0062164703        0.2866784484
O         5.8156587067       -0.0863221256        5.2759539660
O         5.5655900876        1.8281490233        6.7843472746
O        11.2698508938        0.1390209147        1.8947447290
O         1.9067134520        3.8347931717        9.2043694336
O        -0.0195329645       13.1547238562        4.4552639873
O         0.0224840246        3.8009534620        7.6774635707
O         1.8859799321       13.2363006988        2.8671199288
O         3.9661073771        3.8378071909        2.0687677604
O        13.1061274573       13.2704749849        6.7316991950
O        11.3719353345        5.6623971373        4.3855623079
O         5.6899655645       11.4707104526        9.2259862231
O        13.1780204291        3.8032775288        5.2201642842
O         3.6393526132       13.3094282524        0.5081734328
O         5.7393001928        5.9122325596        2.7393112128
O        11.3036758326       11.3380390786        7.6545826069
O        11.2513648394       13.2702079981        0.4101238717
O         5.4947496554        3.7195937161        5.1853068119
O         3.7886802270       11.3695642561        7.6804252824
O        13.2781541212        5.9247207644        2.8738185886
O         5.5174104082       13.1997957762        6.7814261831
O        11.5424508001        3.8318748481        1.9191359657
O        13.2359115625       11.4073976917        9.2093697416
O         3.8639685488        5.7140876659        4.4062424781
O         5.7624895771        5.6337151361        6.7339956366
O        11.1229443504       11.4596397359        2.0009045593
O        13.2088084314        3.9095283666        9.1360407510
O         3.7976826787       13.2148298689        4.3896113740
O        11.3578002486        5.7369491329        0.4114811695
O         5.7877512563       11.3034036515        5.2367564891
O         3.7450186187        3.7231950919        7.6489916454
O        13.2125968194       13.2150172444        2.7158045079
O        13.0529636574       11.4092315225        5.1536821284
O         3.7136736393        5.6749312856        0.4292826048
O         5.6957023976       13.1678665738        2.8683916814
O        11.2944951691        3.5631998088        7.5575592449
O         3.9628527010       11.4063768662        1.9653647050
O        13.2141737149        5.6413911869        6.8989520704
O        11.2878032912       13.3491978263        4.3222964944
O         5.6641383703        3.8114864783        9.1413893883
O         3.7859614952        7.6357174277        1.9260671477
O        13.3105152748        9.5854056325        6.7523266937
O         7.5728106229        5.5280954099        4.3205281997
O         9.4246795124       11.3236168119        9.2236688997
O        13.2644066867        7.5874562892        5.4209144365
O         3.8104926882        9.5219442686        0.3605676765
O         9.5548347608        5.5805165177        2.7899381785
O         7.5223336220       11.3468978678        7.5744692643
O        11.3449928779        9.4922921737        0.4090439124
O         5.7314396246        7.5683454693        5.1631372051
O         5.5487234438        9.4183442316        6.7579613592
O        11.2252821797        7.6055591816        2.0187555044
O         9.4351918820        3.9482918198        9.1476276353
O         7.5913025796       13.0450664195        4.4520249733
O         7.5038896527        3.6462153608        7.5500658900
O         9.4299727265       13.4674462274        2.8563005655
O         7.4433755247       -0.0381093169        2.0366289271
O         9.2146179700        1.8079748931        6.7270700497
O         0.0794181468        9.3700119629        4.4364657759
O         1.9265231153        7.5783546937        9.2017411099
O         9.3123607616       -0.0324961418        5.1949611141
O         7.6340269606        1.9047815935        0.4397127248
O         1.9643584107        9.6979871742        2.7724037096
O         0.0422337783        7.5687320402        7.6172730637
O         7.5236657408        3.7971895814        1.9484618733
O         9.5036309940       13.2086844229        6.7426499650
O        11.4417478974        9.2297506306        4.3773707601
O         5.6685783778        7.6969964550        9.1253475412
O         9.4808075079        3.6884824240        5.1834907971
O         7.5678413750       13.2197038640        0.4191184399
O         5.7405866646        9.4002058010        2.7127105822
O        11.3029431138        7.6441428803        7.5961211538
O         3.7905017235        7.3652021006        7.6013175679
O        13.3243693622        9.6155838623        2.8082277735
O        13.2652245543        7.6761569528        9.3251140834
O         3.8515061313        9.4255915393        4.2969009393
O         9.6089839365        5.5296269719        6.7542274893
O         7.6428156622       11.3272489854        1.9599299739
O         7.3439839031        5.6956247216        0.3710477749
O         9.5562705614       11.2281017742        5.1976246430
O         7.8591355505        7.5901264824        1.9239936233
O         9.4492955255        9.4168091602        6.8097196792
O         7.5595118067        9.3774959094        4.3255367985
O         9.4714363687        7.4397613530        9.2188290109
O         9.3556545305        7.4825470097        5.2466038436
O         7.5175686468        9.4673873019        0.3633054783
O         9.5712093355        9.5094186406        2.8712242593
O         7.5965743951        7.5409245232        7.5883634374
     192
 i =        2, E =     -5781.6529521609
Ti        -0.0592560819        0.1163700349        0.0324409293
Ti         1.8565453334        1.9283529149        4.8822500077
Ti         0.0401578420        2.0108138903        2.4897160365
Ti         1.8456495837       -0.0657656742        7.1915571924
Ti        -0.0568771832        3.8289495088       -0.0337279332
Ti         1.9524536347       13.2066298135        4.8398905005
Ti        11.3008567710        1.9582585958        2.4334781858
Ti         5.6006414423       -0.0751064785        7.2140276402
Ti         1.9052635499        3.8053679181        7.2470278236
Ti         0.0083609844       13.3336584996        2.4602951821
Ti         5.6814934411        1.8516789440        4.8125163371
Ti        11.2919513443        0.0931487312       -0.0329535630
Ti         3.6602205380        0.0815697224        0.0342963350
Ti        13.1636843037        1.7921761457        4.7353050739
Ti        13.2650776387       -0.0403968889        7.1775350325
Ti         3.7640852277        1.8325744122        2.5076296154
Ti         1.9635055253        5.6575392196        4.8328127922
Ti         0.0005036658       11.5619427875       -0.0049955011
Ti        -0.0153259719        5.7100695020        2.4791987973
Ti         1.8796827596       11.3446743441        7.3310302923
Ti         0.0341937631        7.4907063554        0.0303806069
Ti         2.0237579758        9.5195414496        4.8645651871
Ti         7.5007039342        1.9551638011        2.3328464114
Ti         9.4827366475       -0.1116820097        7.2266249058
Ti         1.9384598414        7.5719123788        7.1753793473
Ti         0.1045546330        9.5521772579        2.4904065575
Ti         9.3507844409        1.8214868349        4.7912801672
Ti         7.4669509526       -0.0338073748       -0.0645899840
Ti         3.7395966736        3.7712624897        0.0032912331
Ti        13.2318334628       13.1169908770        4.7784447134
Ti        11.3601119934        5.7143372795        2.3857707749
Ti         5.6737768502       11.3191074607        7.1741623363
Ti        13.1642190289        3.7050397016        7.2309606147
Ti         3.7819902585       13.1934437807        2.4441786643
Ti         5.6986063468        5.6984484023        4.8349230843
Ti        11.2239736301       11.3868836931        0.0818007190
Ti        11.3051206476       13.3132539653        2.3468651578
Ti         5.6659389370        3.7257575241        7.1415324906
Ti         3.8666442782       11.3960629206        0.0214289312
Ti        13.2757769231        5.5926417261        4.8720401127
Ti         5.7718528550       13.2039311138        4.8060834909
Ti        11.2621534013        3.7980470299       -0.0440688413
Ti        13.1238261788       11.3533157439        7.2620091987
Ti         3.8030750627        5.6316961390        2.3935350737
Ti         3.7905254502        7.5815046738        0.0317735878
Ti        13.2846400210        9.4299764215        4.8410390680
Ti         7.4936423760        5.6843089290        2.4118670190
Ti         9.4107584973       11.1777093361        7.1698744602
Ti        13.2971200252        7.5276609833        7.1966459633
Ti         3.8585903224        9.4344696980        2.3518128254
Ti         9.5193698177        5.5729822959        4.7261419293
Ti         7.5652507208       11.3537987230        0.0426706500
Ti        11.3949667989        9.4536943461        2.4343317907
Ti         5.6642783125        7.5820626141        7.2242762746
Ti         5.7699674992        9.4202082380        4.7581986802
Ti        11.3301661416        7.5857763453       -0.0003026403
Ti         9.4363685124        3.6638674129        7.1746478499
Ti         7.5408341039       13.3247483343        2.3893746410
Ti         7.4745816265        3.7979380087       -0.0581561827
Ti         9.4973826121       13.2364516205        4.7880946983
Ti         7.6105296546        7.5332684734       -0.0628553383
Ti         9.5274219370        9.4211320967        4.7781250976
Ti         7.6132789681        9.4155247890        2.3303957416
Ti         9.5179733024        7.3893333057        7.1529269351
O         0.0562079794        0.0644811154        2.0276164598
O         1.7594417517        1.9171065637        6.7662930844
O        -0.0221833314        1.9776309569        4.3927094373
O         1.7969965964        0.1244105311        9.2100900854
O         1.8153964877       -0.0107288188        5.2669200952
O        -0.1163775462        2.0075318522        0.4524431584
O         1.8679378594        2.0900000627        2.8111580001
O        -0.0523390093       -0.0541548717        7.6407555968
O        -0.0611775025        3.8910542810        2.0704122022
O         1.9864744213       13.2444786168        6.8344465460
O        11.2942792746        1.8436964251        4.3417533107
O         5.6040646573        0.0181537769        9.2490222058
O         2.0638096412        3.7794555171        5.1939138269
O         0.0476815509       13.3730005534        0.4338150853
O         5.6341095153        1.9206293593        2.8211578160
O        11.3096097583        0.0760249795        7.5716870489
O         3.7019582887        0.0839013228        7.6680867781
O        13.1901053645        1.8972123795        2.8380605852
O        13.1859428119       -0.0276769062        9.1877436293
O         3.7216385480        1.6794998270        4.3973234628
O         1.8713356655        5.6372028890        6.7701746815
O         0.0238088834       11.4269175371        1.9143512222
O         0.0372333461        5.7088321217        0.4595779294
O         1.8934942642       11.3351766052        5.2418133269
O         0.1259846242        7.6977197008        1.9387639644
O         2.0536157998        9.4673301257        6.7937008719
O         7.4974586365        1.9139940837        4.3802386268
O         9.4181978602        0.0147837642        9.1725848447
O         1.8948571047        7.5663565303        5.2688929547
O         0.0842336270        9.5419454764        0.2697114553
O         9.3822335420        1.9816230754        2.8203289948
O         7.4779118141       -0.1316861607        7.6716687740
O         3.7348125506        0.0635875372        2.0321655333
O        13.2723078372        1.8662775330        6.7891906754
O         0.0122338195        5.5949313080        4.4637889972
O         1.8911817641       11.3523027437        9.2468109981
O        13.2296930288       -0.0047727621        5.1711177174
O         3.7140497578        1.9343331308        0.4432851974
O         1.9423160892        5.7501207746        2.8687172614
O         0.0473431052       11.4327334436        7.5973267649
O        11.3227413717        1.9829847331        0.3129697590
O         5.7873103010       -0.0570350105        5.2550953666
O         5.6319651257        1.8252198717        6.7801724474
O        11.2987361573        0.1287622600        1.9186854001
O         1.8854949593        3.8175488605        9.2355715884
O        -0.0108444032       13.2070991299        4.4128827940
O         0.0016853708        3.7818174782        7.6768907868
O         1.8813660215       13.2381161790        2.8637292953
O         3.9004079151        3.8482502978        2.0577559796
O        13.1566009551       13.2351688796        6.7826826678
O        11.3676822642        5.6659010035        4.4041180389
O         5.6970753220       11.4557499040        9.2262266295
O        13.1570257171        3.8045750140        5.2215125877
O         3.6496158138       13.2945270546        0.4757718882
O         5.7103780043        5.8731886593        2.7650138761
O        11.3197608662       11.3346187061        7.6151089577
O        11.2744989255       13.2732960200        0.3878886229
O         5.5862935739        3.7218784653        5.1871469688
O         3.7913371360       11.3759482182        7.6652920205
O        13.2874501301        5.9024978903        2.8671476330
O         5.5211907901       13.2042125375        6.8087598834
O        11.4771314741        3.8067853073        1.9615027371
O        13.2555930535       11.4304109378        9.1989557180
O         3.8553455731        5.7217508142        4.3994923779
O         5.7519718544        5.6323879792        6.7352514579
O        11.2161958179       11.4104324988        2.0070446045
O        13.2068257006        3.8902838003        9.1479166840
O         3.7832393858       13.2315841473        4.4156621253
O        11.4030440856        5.7426750766        0.4077171148
O         5.7408351587       11.2895471463        5.2479207710
O         3.7567897561        3.7241492771        7.6576600643
O        13.2312825460       13.2679526688        2.7761708771
O        13.0875834123       11.3470574046        5.1597092759
O         3.7413204886        5.6808309837        0.4241278601
O         5.6937542436       13.2323785800        2.8542099309
O        11.3027260617        3.5811496396        7.5789851522
O         3.9227600665       11.3998361740        1.9859143433
O        13.2217825725        5.6546747096        6.8366370001
O        11.3056311968       13.3088502501        4.3410624926
O         5.6584341060        3.7837303003        9.1595134216
O         3.7553962113        7.6108844173        1.9417122024
O        13.3101417474        9.5432300436        6.7822281909
O         7.5844630812        5.5198328929        4.3320632211
O         9.4332959487       11.3102704067        9.1738728513
O        13.2981708680        7.5753644666        5.3420734120
O         3.7971673205        9.5090012101        0.3796017847
O         9.5059630571        5.5787610279        2.7965384369
O         7.5190732905       11.3223497188        7.5646306136
O        11.3612602720        9.4841434975        0.4688742057
O         5.7454456767        7.5505491305        5.1792188221
O         5.6005916404        9.4039692206        6.7706835631
O        11.2998670696        7.6167337590        2.0011518807
O         9.4161214673        3.9292662696        9.1497513218
O         7.5733821732       13.0872574836        4.4076169454
O         7.5208615564        3.6937770383        7.5740319171
O         9.4261841522       13.3752248756        2.8227413612
O         7.4810362546        0.0029251503        2.0341176168
O         9.2817008641        1.8232753182        6.7602944148
O         0.0527771714        9.4362064337        4.4205696422
O         1.9065592398        7.6630590699        9.2132353488
O         9.3558013977       -0.0232116032        5.2040665852
O         7.5620837966        1.9138193442        0.4097909708
O         1.9358862131        9.6339883913        2.7671786027
O         0.0323707621        7.5851423132        7.6160322229
O         7.4796487100        3.8185260969        1.9470132825
O         9.4848827114       13.2161735986        6.7612307191
O        11.4121424941        9.2484582761        4.4023631492
O         5.6719669465        7.6498123980        9.1555687834
O         9.4561396897        3.7122810775        5.1949205179
O         7.5862582168       13.2532117935        0.4291058926
O         5.7304492635        9.4114630921        2.7514918605
O        11.3380000511        7.6254435041        7.6367535971
O         3.7829377373        7.3953928774        7.5976464039
O        13.2910838587        9.6015790735        2.8111876035
O        13.2661756428        7.6597873278        9.2287887024
O         3.8432143380        9.3936598604        4.3199181156
O         9.5407894310        5.5645512285        6.7645967247
O         7.6647705175       11.3298618806        1.9554399218
O         7.4148393266        5.6905994208        0.4029455042
O         9.5563629826       11.2540265513        5.2078939556
O         7.7914904441        7.5597465908        1.9434649269
O         9.4647917197        9.4101134011        6.8361095800
O         7.5811364512        9.3887457231        4.3436361603
O         9.4705589947        7.4980008869        9.1817910622
O         9.4024742483        7.4928534943        5.2318533122
O         7.5319030590        9.4543275278        0.3663630813
O         9.5275033720        9.5082610046        2.8650875559
O         7.5891100211        7.5157839165        7.5944678444
     192
 i =        3, E =     -5781.6902769873
Ti        -0.0484155914        0.1169967789        0.0175388752
Ti         1.8641036971        1.9209135337        4.8704057572
Ti         0.0361149836        2.0061424709        2.4715274290
Ti         1.8506872631       -0.0539404055        7.2009430149
Ti        -0.0662826740        3.8176010738       -0.0303318459
Ti         1.9496777739       13.2228068968        4.8286499382
Ti        11.3237698269        1.9447233108        2.4326250147
Ti         5.6056180721       -0.0519283050        7.2110852436
Ti         1.9011853975        3.7947533713        7.2470930888
Ti         0.0050936115       13.3341585796        2.4466710683
Ti         5.6869521746        1.8599111877        4.8133534848
Ti        11.2853822263        0.0819643759       -0.0275433258
Ti         3.6699518588        0.0800052448        0.0272423323
Ti        13.1815850590        1.8132341090        4.7663713393
Ti        13.2496635517       -0.0288915803        7.1968961412
Ti         3.7725298077        1.8411407984        2.4842248702
Ti         1.9586974026        5.6669548946        4.8266906223
Ti        -0.0125057656       11.5504355133       -0.0138776228
Ti        -0.0091201595        5.7003201258        2.4717832080
Ti         1.8654920420       11.3527331301        7.2978003388
Ti         0.0153596861        7.4993472241        0.0076780503
Ti         2.0037495278        9.5189981796        4.8475818466
Ti         7.5159365529        1.9469471278        2.3336388490
Ti         9.4706326157       -0.0929561647        7.2177992992
Ti         1.9261387209        7.5675774597        7.1772222304
Ti         0.0845968206        9.5307328477        2.4902872854
Ti         9.3659597224        1.8371375406        4.7875057555
Ti         7.4667512182       -0.0098852666       -0.0562193797
Ti         3.7450448459        3.7762233003        0.0123748776
Ti        13.2342508818       13.1411337335        4.7826961693
Ti        11.3628449533        5.7080017389        2.3924390516
Ti         5.6690214557       11.3188894920        7.1901356889
Ti        13.1764977875        3.7208696495        7.2189635672
Ti         3.7798224891       13.2177333301        2.4227637487
Ti         5.7001057684        5.6810033974        4.8402878560
Ti        11.2403325065       11.3879959892        0.0550125692
Ti        11.3233256950       13.2974581925        2.3671859941
Ti         5.6655044270        3.7322223723        7.1584512891
Ti         3.8453362306       11.3897197061        0.0194600251
Ti        13.2709540469        5.5965039613        4.8500778101
Ti         5.7477630641       13.2035417930        4.7975814122
Ti        11.2682946087        3.7963722536       -0.0207511190
Ti        13.1629253549       11.3304121035        7.2721462059
Ti         3.7943185134        5.6318438465        2.3914068202
Ti         3.7779242506        7.5938233556        0.0153657901
Ti        13.2814201614        9.4377062452        4.8396580206
Ti         7.4992891392        5.6905160918        2.4063810997
Ti         9.4177665508       11.2084301009        7.1642232208
Ti        13.2959642293        7.5233455529        7.1831076574
Ti         3.8389713640        9.4328850730        2.3767819541
Ti         9.5015309143        5.5848310458        4.7438383294
Ti         7.5711952088       11.3480241839        0.0260258150
Ti        11.4019162554        9.4552696036        2.4260306492
Ti         5.6718042114        7.5614834790        7.2353558459
Ti         5.7583575998        9.4147544162        4.7765000372
Ti        11.3516973019        7.5906482082       -0.0137530325
Ti         9.4329804643        3.6863532006        7.1836057190
Ti         7.5476065208       13.3303934858        2.3803454624
Ti         7.4822060030        3.8047730665       -0.0484266971
Ti         9.4893752570       13.2303103760        4.7894161031
Ti         7.6113709366        7.5357773043       -0.0612190834
Ti         9.5180273280        9.4295079296        4.7752389875
Ti         7.6083187636        9.4336870332        2.3500873742
Ti         9.5112860393        7.4301271842        7.1633988407
O         0.0453825681        0.0757643905        1.9998700146
O         1.8027793267        1.9142361973        6.7787404762
O         0.0054935316        1.9485599135        4.3957951061
O         1.8154961602        0.1237398929        9.2059790986
O         1.8080524403       -0.0135320510        5.2643871957
O        -0.1070463426        1.9924435657        0.4422129781
O         1.8708504509        2.0268438463        2.7993725723
O        -0.0388236309       -0.0614538477        7.6335717115
O        -0.0890233988        3.8764132473        2.0480020381
O         1.9622066746       13.2321718795        6.8342197589
O        11.2926370321        1.8521531760        4.3710498331
O         5.5910027647        0.0147251680        9.2352825336
O         2.0325056983        3.7849312358        5.2114451698
O         0.0383335244       13.3577865640        0.4240038753
O         5.6450876943        1.9536100010        2.8161618927
O        11.3064226922        0.0587395208        7.5778829661
O         3.7124888523        0.0387718715        7.6628038007
O        13.2038289668        1.8912912205        2.8482598030
O        13.1919384659        0.0352690610        9.1791112904
O         3.7484098944        1.7251344828        4.4037338929
O         1.8580381201        5.6502325164        6.7974935097
O        -0.0151477022       11.4079400549        1.9210810698