     192
 i =        1, E =     -5781.5602730823
Ti        -0.0039647668        0.0146353700       -0.0061208023
Ti        -0.0079713389       -0.0034429228       -0.0160849143
Ti        -0.0064330857        0.0016604266       -0.0150167193
Ti        -0.0066139055        0.0091045189        0.0133772031
Ti        -0.0052125293       -0.0063721599        0.0142682197
Ti         0.0033765821        0.0028620123        0.0028646639
Ti         0.0037891452        0.0031419053       -0.0261361150
Ti         0.0000590543        0.0068433912        0.0045669882
Ti        -0.0002668280       -0.0128418335       -0.0056375087
Ti        -0.0117352145       -0.0033654245        0.0004018996
Ti        -0.0145414473        0.0023900794        0.0002644412
Ti        -0.0047625586       -0.0073019353       -0.0008985745
Ti        -0.0003232772       -0.0052548640       -0.0053155602
Ti         0.0143996470        0.0050475012        0.0229932780
Ti        -0.0142696174        0.0082910170        0.0085484037
Ti         0.0030186852        0.0208534369       -0.0136553925
Ti        -0.0016532716        0.0066389929       -0.0184272786
Ti        -0.0016457627       -0.0001136641       -0.0099768081
Ti         0.0067529014        0.0037259043        0.0046579862
Ti         0.0100582116        0.0071277083       -0.0170148847
Ti        -0.0092376345        0.0070145496       -0.0099460843
Ti        -0.0032658614       -0.0107764914       -0.0314096473
Ti        -0.0018729056       -0.0121748180       -0.0074271062
Ti        -0.0037316430        0.0081291933        0.0005352662
Ti        -0.0012484049       -0.0058461711        0.0097852612
Ti         0.0000521222       -0.0063854717        0.0126678326
Ti        -0.0000358668        0.0013628464        0.0088940632
Ti         0.0143124622        0.0074566348        0.0280977943
Ti         0.0151665649        0.0004855861        0.0057796644
Ti        -0.0106299075        0.0201383736       -0.0079135803
Ti         0.0063745642       -0.0074646300        0.0015308346
Ti        -0.0018244916       -0.0034396016        0.0117546328
Ti         0.0047004068        0.0024923878       -0.0118077339
Ti         0.0054461069        0.0173040579        0.0008954821
Ti         0.0152867653       -0.0088795270       -0.0084900640
Ti         0.0008975005        0.0029542993       -0.0118066889
Ti         0.0008449144        0.0020244636       -0.0018492196
Ti        -0.0033605491        0.0007241201        0.0008148300
Ti        -0.0054306434       -0.0024619966       -0.0160211920
Ti        -0.0108400327        0.0098239088        0.0008256516
Ti        -0.0093568684       -0.0069695711       -0.0059870577
Ti         0.0038667427        0.0134665384        0.0103367776
Ti         0.0079388891        0.0022767646        0.0002690507
Ti         0.0044741609        0.0076781089        0.0058825839
Ti         0.0019051142        0.0101292516       -0.0177428662
Ti         0.0006234684        0.0074113413       -0.0025853827
Ti         0.0026955159        0.0063239928       -0.0023909503
Ti        -0.0076092515        0.0281266645        0.0048404665
Ti        -0.0070664367        0.0001648187        0.0200998960
Ti        -0.0118343500        0.0056847324        0.0005195415
Ti        -0.0032904306        0.0017714634        0.0102466116
Ti         0.0092313541       -0.0000178854       -0.0146641826
Ti         0.0104175030        0.0054310596       -0.0063460085
Ti         0.0059827592       -0.0083632053        0.0055215775
Ti        -0.0124725306        0.0052622452        0.0018062991
Ti         0.0026581984        0.0083558187       -0.0067231815
Ti        -0.0043562564       -0.0021688740       -0.0020031422
Ti         0.0098073860       -0.0073227702       -0.0029955754
Ti         0.0101719216       -0.0026653801        0.0036045934
Ti        -0.0073339370       -0.0083559857        0.0095842311
Ti         0.0015198493        0.0026583953       -0.0046005073
Ti         0.0001961411        0.0008177856        0.0062642901
Ti        -0.0013267457        0.0051526035        0.0043229225
Ti        -0.0111212888        0.0062454895        0.0061764082
O         0.0013051241        0.0016914697       -0.0078263533
O         0.0099539152       -0.0020494622        0.0157997732
O         0.0161792521       -0.0034619477        0.0038412899
O         0.0036628039       -0.0032491509       -0.0048427023
O         0.0009026898        0.0001266146       -0.0063349922
O         0.0056090195       -0.0019196136       -0.0050808447
O         0.0041020634       -0.0114445794       -0.0007561400
O         0.0164410006       -0.0009666053        0.0047627325
O        -0.0030347693       -0.0038132535       -0.0055226491
O        -0.0005999557       -0.0174276298        0.0021972294
O        -0.0130155627       -0.0004673154        0.0171078866
O        -0.0187208624        0.0045824594       -0.0032997350
O        -0.0051416468        0.0105517378        0.0059208872
O         0.0013210345       -0.0039604116        0.0016193973
O         0.0015493705        0.0060234546       -0.0029989822
O         0.0076486748        0.0008175341        0.0023900993
O         0.0007186810       -0.0036899008       -0.0050757383
O        -0.0010268154        0.0030048229       -0.0077207404
O         0.0081329950        0.0087819403       -0.0079123996
O         0.0061009969        0.0009249971        0.0173032237
O        -0.0042326676        0.0096051450        0.0177150395
O        -0.0018297390       -0.0086322848        0.0032660199
O        -0.0062184179       -0.0103404064       -0.0002737610
O        -0.0013838172        0.0150003358        0.0036156858
O        -0.0004341811       -0.0050430820        0.0007193598
O        -0.0094465614       -0.0018386304        0.0190047747
O         0.0175776767        0.0043072449        0.0051801564
O         0.0030000023       -0.0019130673       -0.0054394763
O         0.0085731989       -0.0003207734       -0.0059674171
O        -0.0030970572       -0.0042200117       -0.0015793455
O         0.0040726960       -0.0058377668       -0.0098391247
O        -0.0030360807        0.0026708183       -0.0227175608
O        -0.0006280807       -0.0122396824       -0.0007627241
O         0.0054229309        0.0034122538       -0.0039166809
O         0.0111893308       -0.0008675069       -0.0083979359
O        -0.0136031543        0.0003875383        0.0036788046
O         0.0058627427        0.0102267336        0.0056309877
O         0.0005360447       -0.0050805549        0.0061733216
O        -0.0073336314       -0.0059792299       -0.0083055633
O        -0.0249803939        0.0024872884        0.0103116546
O        -0.0029588749       -0.0151460506        0.0073188111
O        -0.0034364861        0.0144803420       -0.0042579830
O         0.0066574994       -0.0020432197        0.0009486262
O         0.0034622832       -0.0009106663        0.0055227471
O        -0.0136190541       -0.0011177934        0.0057949531
O         0.0071280823        0.0054179991       -0.0105619978
O        -0.0079399322       -0.0006617620       -0.0070193760
O         0.0040826225       -0.0008249346        0.0010003173
O        -0.0077475039       -0.0079143123       -0.0062406432
O         0.0052064162       -0.0182930397        0.0041554787
O         0.0041660883       -0.0004841778        0.0034666363
O         0.0015822570       -0.0007256088       -0.0040731664
O        -0.0033220840       -0.0135020478        0.0007311118
O         0.0009768050        0.0006222873       -0.0104079975
O        -0.0152003754       -0.0048416311        0.0042157376
O         0.0014275092       -0.0003594102       -0.0013358296
O         0.0028331003        0.0118277076       -0.0056893315
O         0.0094843585       -0.0031970870        0.0015560347
O         0.0116934764        0.0002670684        0.0004925146
O         0.0036277656       -0.0041854281        0.0011303021
O        -0.0016569166        0.0003501271        0.0069538090
O        -0.0084178302       -0.0065337074        0.0065540311
O         0.0079886343        0.0010857455       -0.0003913172
O        -0.0098489907        0.0000407487       -0.0015816268
O        -0.0023998156        0.0054713215        0.0043467510
O         0.0112588560       -0.0194844288        0.0076106863
O         0.0009960944       -0.0009476997        0.0053376658
O        -0.0062351183        0.0015776693        0.0104908602
O         0.0048983672       -0.0042297750       -0.0015860295
O        -0.0075113035       -0.0049908336       -0.0033721640
O         0.0077124829       -0.0002177613       -0.0015400261
O         0.0055129878        0.0061207657        0.0127324051
O         0.0015396270       -0.0328684434        0.0036178166
O         0.0029548777       -0.0003719931        0.0011160358
O        -0.0026150334        0.0076732612       -0.0022097311
O         0.0057655862        0.0023240870        0.0023771622
O        -0.0028340908       -0.0130705493        0.0103660636
O         0.0005244458        0.0042302780       -0.0061595978
O         0.0210915840       -0.0038223274        0.0055324482
O        -0.0122569325       -0.0021481125        0.0030512456
O        -0.0025001986       -0.0107880430        0.0089036285
O        -0.0003792608       -0.0083170520        0.0097957449
O         0.0023051487       -0.0007572990        0.0038164116
O        -0.0064427291       -0.0015375098       -0.0090464457
O         0.0018016496       -0.0047998987       -0.0328967998
O         0.0000885724       -0.0040729590        0.0029527051
O        -0.0185426973       -0.0007835311       -0.0011621393
O         0.0065229523       -0.0024669592        0.0025161279
O         0.0036688996       -0.0030182197        0.0118087743
O        -0.0007072780       -0.0013743026        0.0050250174
O         0.0037241586        0.0010156621       -0.0022572833
O         0.0083618675        0.0022501246       -0.0065383569
O        -0.0116795716       -0.0022563772       -0.0026063551
O         0.0029206474        0.0047217063       -0.0081511786
O         0.0069641806        0.0042032957        0.0058000616
O        -0.0096693630       -0.0087809031       -0.0101779148
O         0.0037367273        0.0191370208       -0.0039214499
O         0.0081776616        0.0034268871        0.0077612431
O        -0.0014270735        0.0086106412       -0.0103233011
O         0.0003153112        0.0096210728        0.0002895164
O         0.0049304059        0.0003148839       -0.0003732465
O        -0.0081797163       -0.0034474657       -0.0073676174
O        -0.0026280961       -0.0070879239        0.0025313352
O         0.0008414306        0.0014911299        0.0032062558
O        -0.0038382233        0.0095284302       -0.0018229952
O        -0.0026721024       -0.0062647344        0.0044785241
O        -0.0077080599        0.0026415263        0.0050444736
O        -0.0034282372       -0.0055156346        0.0079855789
O        -0.0024585123        0.0054147027        0.0011197849
O         0.0016528748        0.0129811219        0.0032250818
O         0.0046715188        0.0029304940        0.0052146400
O         0.0233302029       -0.0020709689        0.0110489403
O        -0.0020573668        0.0044392121       -0.0011840443
O        -0.0123391276       -0.0019010183       -0.0001231496
O         0.0065051527       -0.0036427054       -0.0114928894
O        -0.0030875219       -0.0023429030        0.0081458600
O        -0.0072127368        0.0096343379        0.0002926978
O         0.0025515784        0.0002975001        0.0059550043
O         0.0070711857       -0.0014374572        0.0019394319
O        -0.0019679757        0.0070420208        0.0016739699
O        -0.0062462017       -0.0107490900        0.0038306016
O         0.0011012667       -0.0239537389       -0.0018118605
O         0.0229640785        0.0021117112        0.0016342336
O        -0.0078522938        0.0053880099       -0.0076821369
O         0.0041106637       -0.0037762286       -0.0068360191
O         0.0022424959       -0.0106751127        0.0016571745
O        -0.0214169215        0.0015024121       -0.0060296294
O        -0.0023825659       -0.0044378491        0.0037110953
     192
 i =        2, E =     -5781.6529521609
Ti        -0.0022998606        0.0037714662        0.0025800508
Ti         0.0012261963       -0.0037887584       -0.0045538998
Ti        -0.0036596900       -0.0016219680       -0.0113998258
Ti         0.0010580639        0.0169267679        0.0045829172
Ti         0.0025166468       -0.0034051750        0.0029635481
Ti        -0.0037702351        0.0061385172       -0.0048651153
Ti        -0.0005795344        0.0042081222       -0.0062993787
Ti         0.0002816512        0.0072379871        0.0062498452
Ti        -0.0051116539       -0.0085667918       -0.0025970414
Ti        -0.0009918420       -0.0016823619       -0.0034697393
Ti        -0.0074957777       -0.0000022448        0.0023533066
Ti         0.0019654379        0.0011100961       -0.0037374276
Ti         0.0046568915       -0.0039989717       -0.0038430296
Ti         0.0029907147        0.0069426275        0.0151387387
Ti        -0.0103419985        0.0079796967        0.0023171604
Ti        -0.0023950068        0.0142852734       -0.0103593506
Ti         0.0003707738        0.0036412992       -0.0106634766
Ti        -0.0018654930        0.0053972935       -0.0054371698
Ti         0.0092620973        0.0048922841        0.0031276365
Ti         0.0010076517       -0.0032121852       -0.0113230049
Ti        -0.0034007898        0.0075991837       -0.0111297213
Ti        -0.0049948143       -0.0096403478       -0.0107473481
Ti         0.0041209123       -0.0014552578        0.0042504761
Ti        -0.0079233176        0.0087276719       -0.0012295662
Ti        -0.0059489540       -0.0022840103        0.0067528380
Ti        -0.0071763236       -0.0023547787        0.0038733086
Ti         0.0012663469        0.0059642060       -0.0019659774
Ti         0.0002138855        0.0093251005        0.0066206731
Ti         0.0061610996        0.0052234262        0.0063675243
Ti        -0.0011672150        0.0167978400       -0.0040533352
Ti         0.0015317719       -0.0003104850        0.0026938864
Ti        -0.0064603600       -0.0019746171        0.0060143687
Ti         0.0120608471       -0.0005706150       -0.0089666821
Ti        -0.0052510747        0.0112138404       -0.0053449001
Ti         0.0073547112       -0.0038123595       -0.0040701393
Ti         0.0149104200       -0.0067188618       -0.0097873978
Ti         0.0014370153        0.0005758877        0.0067928064
Ti        -0.0021276650        0.0003040049        0.0033449891
Ti        -0.0068545983        0.0060912767       -0.0071940632
Ti        -0.0035905389        0.0096443207       -0.0024487623
Ti        -0.0095830642        0.0007206304        0.0027125080
Ti         0.0049632890        0.0075154606        0.0055890574
Ti         0.0103080554       -0.0009523556        0.0033922898
Ti        -0.0033760964        0.0038476037        0.0028524035
Ti        -0.0016666188       -0.0041944670       -0.0114782554
Ti         0.0000474876       -0.0002764148       -0.0025575785
Ti         0.0113363256        0.0026241661       -0.0072051284
Ti         0.0014222036        0.0129936476       -0.0009749642
Ti        -0.0021982450        0.0066129620        0.0160563381
Ti        -0.0076558857        0.0041986743        0.0029851664
Ti        -0.0078150666        0.0044741680        0.0061956062
Ti        -0.0030015219       -0.0054987888       -0.0010020653
Ti         0.0076259237        0.0021840621       -0.0051413942
Ti         0.0057231123       -0.0083312539       -0.0017679368
Ti        -0.0033354289       -0.0033480854        0.0036677557
Ti         0.0067034383        0.0079292846       -0.0045663280
Ti        -0.0076409197        0.0005768871       -0.0031244892
Ti         0.0088034778       -0.0104720048       -0.0000781646
Ti         0.0036456040        0.0056398824        0.0043540326
Ti        -0.0039238513       -0.0036629092        0.0050031706
Ti        -0.0024182228       -0.0021885305        0.0009581755
Ti        -0.0038566121       -0.0096170283        0.0003458891
Ti         0.0048496296        0.0027406678        0.0053915857
Ti        -0.0090808110        0.0066006745        0.0008994362
O        -0.0012926574        0.0117081288       -0.0008050815
O         0.0014683887        0.0011088080        0.0056826006
O         0.0027229862       -0.0033951289        0.0067021628
O         0.0074975414        0.0013574821        0.0006804198
O        -0.0013987602       -0.0035380660       -0.0046048724
O         0.0001466851       -0.0071467852        0.0039547629
O         0.0021999251       -0.0048054821       -0.0000835761
O         0.0075921740       -0.0012702224       -0.0017386809
O        -0.0019204379       -0.0053118258       -0.0038995823
O        -0.0023598149       -0.0122021138       -0.0002215470
O        -0.0059063188       -0.0007068410        0.0092164044
O        -0.0041297089       -0.0026604729       -0.0018656026
O        -0.0016967892        0.0008655957        0.0060031040
O        -0.0007238622       -0.0083517702       -0.0025366080
O         0.0053430025        0.0000178818       -0.0004154306
O         0.0013015079       -0.0030093746        0.0019200976
O         0.0036134240       -0.0048581950        0.0003727488
O         0.0046523300       -0.0021114712       -0.0049548715
O        -0.0013390269        0.0049803892        0.0000719084
O         0.0075284952        0.0038286886        0.0078645367
O         0.0002201655        0.0053191519        0.0084473485
O        -0.0024941816       -0.0062152294        0.0062479901
O        -0.0013351589       -0.0042342312       -0.0001447039
O         0.0000010241        0.0072985012        0.0012845532
O        -0.0040699992       -0.0024402685        0.0051510698
O        -0.0032212150        0.0023800697        0.0071671995
O         0.0066911628       -0.0025257632        0.0002069523
O         0.0020150207       -0.0009190504        0.0000429365
O         0.0008056793        0.0041589787       -0.0076820891
O        -0.0067828920       -0.0005421286       -0.0008855028
O         0.0030898722       -0.0019388341       -0.0076440758
O         0.0013294951        0.0008318216       -0.0056217065
O         0.0011267156       -0.0147637561       -0.0011582271
O         0.0002681916        0.0031442031       -0.0026001476
O         0.0088930953        0.0000330566       -0.0042569084
O        -0.0003655452       -0.0005378398        0.0016662880
O         0.0015681751       -0.0024479538        0.0024972535
O        -0.0004294820        0.0011752639        0.0050254254
O        -0.0091945593       -0.0006093512        0.0000345838
O        -0.0069304767        0.0001806600        0.0036673308
O        -0.0037333361       -0.0086507589        0.0076696935
O        -0.0036368464       -0.0029430165       -0.0036658101
O         0.0012374464        0.0054934409        0.0009161399
O        -0.0004261732       -0.0146472499        0.0021382426
O        -0.0042347315        0.0023717345       -0.0029955222
O        -0.0015570119       -0.0015177377        0.0003991662
O        -0.0024070889       -0.0009887919       -0.0061854026
O         0.0104031564       -0.0016139462        0.0018390202
O        -0.0039831773       -0.0152533917       -0.0048500269
O         0.0040804455       -0.0045611746       -0.0077636782
O         0.0028773800       -0.0006583938       -0.0053476383
O         0.0023003628       -0.0029058676       -0.0018570609
O         0.0016091318       -0.0159014422       -0.0007241590
O         0.0018909096       -0.0001071215       -0.0042438329
O        -0.0098655240       -0.0027186305        0.0033814936
O        -0.0047572793       -0.0003513316        0.0064502379
O         0.0026178904        0.0039394679        0.0041947695
O        -0.0015628295       -0.0000911261        0.0027506782
O         0.0051888562       -0.0047432044        0.0062106749
O        -0.0067644574       -0.0028450137       -0.0001129058
O         0.0025333617       -0.0028019557       -0.0035681296
O        -0.0047821860        0.0074451053       -0.0044406537
O        -0.0113474910       -0.0055630297        0.0043141552
O        -0.0079759204       -0.0037375458        0.0021166448
O        -0.0038433765        0.0032952435        0.0070653177
O         0.0058896422        0.0038391302       -0.0006338336
O        -0.0087610671        0.0019247234        0.0047771319
O         0.0025591355       -0.0002866865        0.0000433418
O        -0.0001937280       -0.0097580410        0.0031830476
O        -0.0038711172        0.0057616380       -0.0049377706
O         0.0044981039        0.0008350322       -0.0026798578
O        -0.0082180757       -0.0003825991        0.0038053378
O         0.0047611633       -0.0045972530        0.0015856487
O         0.0039479051        0.0033396640       -0.0032518720
O        -0.0062042192        0.0030767108       -0.0001006965
O         0.0009865003        0.0032676017        0.0049097839
O        -0.0029355816       -0.0089351350        0.0065492960
O        -0.0001935528       -0.0026505673        0.0027861721
O         0.0093646966       -0.0029969451        0.0004224326
O        -0.0078706577       -0.0017325824       -0.0014065122
O         0.0023605601       -0.0005456785        0.0031354443
O        -0.0016632283       -0.0104685454        0.0038063448
O        -0.0041421534        0.0025830968        0.0060807698
O        -0.0042650696        0.0004002815        0.0004917603
O         0.0013175009       -0.0003457208       -0.0193808090
O         0.0018978090       -0.0010851422        0.0033623110
O         0.0037822757        0.0029108266       -0.0029077586
O         0.0108239629        0.0000742527        0.0042409495
O        -0.0007395843        0.0053361710       -0.0053895195
O         0.0005647267        0.0010019988        0.0049622447
O        -0.0008334721        0.0046054550        0.0007814195
O         0.0004281011       -0.0113596174        0.0021617409
O         0.0020697883       -0.0032300376        0.0020344470
O         0.0072038175        0.0040346987       -0.0008490700
O         0.0027330945        0.0025086991        0.0015805685
O         0.0028681514       -0.0028700545       -0.0059573959
O        -0.0005666584        0.0109156940       -0.0054200059
O         0.0039323707       -0.0001293686        0.0017552043
O         0.0077002098        0.0013371515       -0.0075738802
O         0.0007860978        0.0004522347       -0.0023526170
O         0.0007821861       -0.0058332042       -0.0026001613
O        -0.0001444673       -0.0063191795       -0.0040340638
O         0.0091098974       -0.0030260816        0.0058887699
O         0.0017948461       -0.0031671130        0.0004559579
O        -0.0005634704       -0.0034281577       -0.0007784011
O        -0.0028497725       -0.0074982835       -0.0014019709
O        -0.0029074650        0.0054920485        0.0039124972
O        -0.0038383190       -0.0006277621        0.0023482751
O         0.0037253858       -0.0008230709        0.0035125716
O        -0.0001782075       -0.0008183560       -0.0015287094
O         0.0002616407        0.0012698089       -0.0014206185
O         0.0137057689       -0.0045686511       -0.0036624633
O        -0.0001699886        0.0029543749        0.0043583370
O        -0.0035222710       -0.0022963032        0.0012115224
O         0.0032319420        0.0001183385       -0.0000611697
O        -0.0062447768        0.0041144492        0.0066408352
O        -0.0009825701        0.0064098336        0.0017357004
O        -0.0041242580        0.0035624029       -0.0021753962
O         0.0029555110        0.0006999039       -0.0071659767
O        -0.0038054489        0.0102233964        0.0007430652
O        -0.0039573999        0.0029199988        0.0006840668
O        -0.0003304334       -0.0090369624       -0.0064424702
O         0.0104046356        0.0038364352        0.0014234311
O        -0.0011817209        0.0018805920        0.0014732183
O         0.0036140446        0.0001469522       -0.0033620824
O         0.0001143650       -0.0006518710        0.0011814965
O        -0.0081141214        0.0001459424       -0.0028553365
O         0.0000798433       -0.0003088238        0.0032899180
     192
 i =        3, E =     -5781.6902769873
Ti        -0.0022889118        0.0010751393        0.0024746438
Ti         0.0036014681       -0.0015877336       -0.0023261287
Ti        -0.0031759091       -0.0042603601       -0.0065079365
Ti         0.0004210342        0.0116275685        0.0008497497
Ti         0.0035921083        0.0013932664        0.0000323842
Ti        -0.0050798509        0.0039885665       -0.0037714557
Ti        -0.0033685676        0.0007152270       -0.0022889694
Ti         0.0001782970        0.0009047574        0.0035281998
Ti        -0.0042240322       -0.0029339660       -0.0014728894
Ti         0.0015492221       -0.0037488963       -0.0023654672
Ti        -0.0065317483       -0.0019401348       -0.0001972849
Ti         0.0018756939        0.0004656853       -0.0005557364
Ti         0.0057687105       -0.0057527486       -0.0035674352
Ti         0.0008165117        0.0064553160        0.0084740177
Ti        -0.0044707929        0.0013461750       -0.0017649975
Ti        -0.0014720696        0.0115029080       -0.0043730735
Ti        -0.0003065465        0.0016343873       -0.0043172658
Ti         0.0011812145        0.0053499925        0.0009219521
Ti         0.0084439035        0.0072781418       -0.0011697472
Ti         0.0025948359       -0.0050394375       -0.0057117485
Ti         0.0018398790       -0.0000010799       -0.0065433366
Ti        -0.0044074796       -0.0074753823       -0.0030171896
Ti         0.0044362668        0.0023524447        0.0053272915
Ti        -0.0083522065        0.0068633967       -0.0023061940
Ti        -0.0042285232       -0.0010558992        0.0048725313
Ti        -0.0077296233        0.0001100511       -0.0005399750
Ti         0.0045562187        0.0032452260       -0.0011572554
Ti        -0.0011799855        0.0045573835        0.0007852136
Ti         0.0020436950        0.0069740362        0.0030249731
Ti         0.0026373284        0.0084767299        0.0045578345
Ti        -0.0011886864        0.0025947336        0.0027228367
Ti        -0.0051673034       -0.0001251894        0.0027651466
Ti         0.0081096489        0.0007236951       -0.0041496418
Ti        -0.0046022266        0.0035751441       -0.0028028381
Ti         0.0034702929       -0.0017518165       -0.0064301793
Ti         0.0145771634       -0.0059115201       -0.0059259660
Ti        -0.0001471006        0.0000729316        0.0027364645
Ti        -0.0034128900       -0.0000989892        0.0049719253
Ti        -0.0055566071        0.0040847299       -0.0039006839
Ti        -0.0023605843        0.0104291831       -0.0021014106
Ti        -0.0080146009        0.0021137936        0.0054426428
Ti         0.0034797857        0.0064900731        0.0005454326
Ti         0.0055513013        0.0018841068       -0.0048932188
Ti        -0.0011800147        0.0054090495        0.0015013175
Ti         0.0005033302       -0.0040994088       -0.0059543146
Ti        -0.0044030653       -0.0017823905       -0.0018818910
Ti         0.0081058385        0.0024502074       -0.0046201071
Ti         0.0029088119        0.0078084106       -0.0008621884
Ti        -0.0014795437        0.0073334116        0.0062690310
Ti        -0.0024810695        0.0030227413       -0.0005505503
Ti        -0.0039184764        0.0067030994        0.0037929565
Ti        -0.0053960612       -0.0048508569        0.0020410645
Ti         0.0024679030        0.0011940403       -0.0021963988
Ti         0.0019395144       -0.0034742082       -0.0012479548
Ti        -0.0003250587       -0.0028749325        0.0031258355
Ti         0.0025367249        0.0045218008       -0.0011613372
Ti        -0.0023970975        0.0011465174       -0.0015134171
Ti         0.0061422662       -0.0117848507        0.0001482356
Ti         0.0022226569        0.0049961137        0.0040647815
Ti        -0.0042015178       -0.0017233499        0.0026243104
Ti        -0.0036152370        0.0013191677        0.0041515059
Ti        -0.0022262705       -0.0096493956        0.0012467093
Ti         0.0036938242        0.0009289716        0.0021034874
Ti        -0.0045959248        0.0050295623       -0.0009102669
O        -0.0008163865        0.0029694384        0.0026234899
O         0.0029383324       -0.0026837798        0.0043815263
O        -0.0044962873        0.0002863181        0.0038726434
O         0.0018720652        0.0020313751        0.0014065975
O         0.0020988854        0.0002061316       -0.0028370858
O         0.0012210185       -0.0036969481        0.0027858067
O         0.0029550041       -0.0018246943        0.0035388166
O         0.0047968001        0.0006036830       -0.0006524420
O         0.0029897012       -0.0056408741       -0.0012251435
O        -0.0027750411       -0.0041067083       -0.0010253283
O         0.0016600789        0.0001862166        0.0029566535
O         0.0029833960       -0.0010129941       -0.0009688993
O        -0.0039661066       -0.0013095472        0.0026849353
O        -0.0020249433       -0.0024144712       -0.0029360737
O         0.0035118988       -0.0048375242        0.0008843453
O         0.0034688501       -0.0010934890        0.0015069119
O         0.0006528172        0.0013946344       -0.0006895852
O         0.0037168111       -0.0008762865       -0.0024214467
O        -0.0030061994        0.0011949595        0.0009326996
O         0.0042956033        0.0037550127        0.0029268643
O         0.0013731933        0.0011285966        0.0033674571
O         0.0036842225       -0.0021529703        0.0050774767