 DBCSR| CPU Multiplication driver                                           XSMM (U)
 DBCSR| Multrec recursion limit                                              512 (U)
 DBCSR| Multiplication stack size                                           1000 (D)
 DBCSR| Maximum elements for images                                    UNLIMITED (U)
 DBCSR| Multiplicative factor virtual images                                   1 (U)
 DBCSR| Use multiplication densification                                       T (D)
 DBCSR| Multiplication size stacks                                             3 (U)
 DBCSR| Use memory pool for CPU allocation                                     F (U)
 DBCSR| Number of 3D layers                                               SINGLE (U)
 DBCSR| Use MPI memory allocation                                              F (U)
 DBCSR| Use RMA algorithm                                                      F (U)
 DBCSR| Use Communication thread                                               T (U)
 DBCSR| Communication thread load                                             87 (D)
 DBCSR| MPI: My process id                                                     0
 DBCSR| MPI: Number of processes                                             128
 DBCSR| OMP: Current number of threads                                         1
 DBCSR| OMP: Max number of threads                                             1
 DBCSR| Split modifier for TAS multiplication algorithm                  1.0E+00 (U)


  **** **** ******  **  PROGRAM STARTED AT               2025-06-16 15:42:53.040
 ***** ** ***  *** **   PROGRAM STARTED ON                             nid002288
 **    ****   ******    PROGRAM STARTED BY                                cahart
 ***** **    ** ** **   PROGRAM PROCESS ID                                249014
  **** **  *******  **  PROGRAM STARTED IN /mnt/lustre/a2fs-work2/work/e05/e05/c
                                           ahart/postdoc2/work/group/tio2/anatas
                                           e/cell-441/geo-opt/mp-390/hole/from-n
                                           eutral/pbe-u-o/u-4.0

 CP2K| version string:                                       CP2K version 2024.3
 CP2K| source code revision number:                                  git:6712648
 CP2K| cp2kflags: omp libint fftw3 libxc libgrpp elpa parallel scalapack cosma x
 CP2K|            smm plumed2 spglib mkl sirius libvori libbqb libvdwxc hdf5
 CP2K| is freely available from                            https://www.cp2k.org/
 CP2K| Program compiled at                       Thu 12 Sep 2024 10:20:47 AM BST
 CP2K| Program compiled on                                                  ln04
 CP2K| Program compiled for                                                local
 CP2K| Data directory path    /mnt/lustre/a2fs-work1/work/y07/shared/apps/core/c
 CP2K| Input file name                                                 input.inp

 GLOBAL| Force Environment number                                              1
 GLOBAL| Basis set file name                                        BASIS_MOLOPT
 GLOBAL| Potential file name                                      GTH_POTENTIALS
 GLOBAL| MM Potential file name                                     MM_POTENTIAL
 GLOBAL| Coordinate file name                                         system.xyz
 GLOBAL| Method name                                                        CP2K
 GLOBAL| Project name                                                       tio2
 GLOBAL| Run type                                                        GEO_OPT
 GLOBAL| FFT library                                                       FFTW3
 GLOBAL| Diagonalization library                                            ELPA
 GLOBAL| DGEMM library                                                      BLAS
 GLOBAL| Minimum number of eigenvectors for ELPA usage                        16
 GLOBAL| Orthonormality check for eigenvectors                          DISABLED
 GLOBAL| Matrix multiplication library                                     COSMA
 GLOBAL| All-to-all communication in single precision                          F
 GLOBAL| FFTs using library dependent lengths                                  F
 GLOBAL| Grid backend                                                       AUTO
 GLOBAL| Global print level                                               MEDIUM
 GLOBAL| MPI I/O enabled                                                       T
 GLOBAL| Total number of message passing processes                           128
 GLOBAL| Number of threads for this process                                    1
 GLOBAL| This output is from process                                           0
 GLOBAL| Stack size for threads created by OpenMP (OMP_STACKSIZE)        default
 GLOBAL| CPU model name                          AMD EPYC 7742 64-Core Processor
 GLOBAL| CPUID                                                              1002

 MEMORY| system memory details [Kb]
 MEMORY|                        rank 0           min           max       average
 MEMORY| MemTotal            263341976     263341976     263341976     263341976
 MEMORY| MemFree             236193288     236193288     236193288     236193288
 MEMORY| Buffers                     0             0             0             0
 MEMORY| Cached                1587184       1587184       1587184       1587184
 MEMORY| Slab                  5182320       5182316       5182320       5182319
 MEMORY| SReclaimable           114456        114456        114456        114456
 MEMORY| MemLikelyFree       237894928     237894928     237894928     237894928


 *** Fundamental physical constants (SI units) ***

 *** Literature: B. J. Mohr and B. N. Taylor,
 ***             CODATA recommended values of the fundamental physical
 ***             constants: 2006, Web Version 5.1
 ***             http://physics.nist.gov/constants

 Speed of light in vacuum [m/s]                             2.99792458000000E+08
 Magnetic constant or permeability of vacuum [N/A**2]       1.25663706143592E-06
 Electric constant or permittivity of vacuum [F/m]          8.85418781762039E-12
 Planck constant (h) [J*s]                                  6.62606896000000E-34
 Planck constant (h-bar) [J*s]                              1.05457162825177E-34
 Elementary charge [C]                                      1.60217648700000E-19
 Electron mass [kg]                                         9.10938215000000E-31
 Electron g factor [ ]                                     -2.00231930436220E+00
 Proton mass [kg]                                           1.67262163700000E-27
 Fine-structure constant                                    7.29735253760000E-03
 Rydberg constant [1/m]                                     1.09737315685270E+07
 Avogadro constant [1/mol]                                  6.02214179000000E+23
 Boltzmann constant [J/K]                                   1.38065040000000E-23
 Atomic mass unit [kg]                                      1.66053878200000E-27
 Bohr radius [m]                                            5.29177208590000E-11

 *** Conversion factors ***

 [u] -> [a.u.]                                              1.82288848426455E+03
 [Angstrom] -> [Bohr] = [a.u.]                              1.88972613288564E+00
 [a.u.] = [Bohr] -> [Angstrom]                              5.29177208590000E-01
 [a.u.] -> [s]                                              2.41888432650478E-17
 [a.u.] -> [fs]                                             2.41888432650478E-02
 [a.u.] -> [J]                                              4.35974393937059E-18
 [a.u.] -> [N]                                              8.23872205491840E-08
 [a.u.] -> [K]                                              3.15774647902944E+05
 [a.u.] -> [kJ/mol]                                         2.62549961709828E+03
 [a.u.] -> [kcal/mol]                                       6.27509468713739E+02
 [a.u.] -> [Pa]                                             2.94210107994716E+13
 [a.u.] -> [bar]                                            2.94210107994716E+08
 [a.u.] -> [atm]                                            2.90362800883016E+08
 [a.u.] -> [eV]                                             2.72113838565563E+01
 [a.u.] -> [Hz]                                             6.57968392072181E+15
 [a.u.] -> [1/cm] (wave numbers)                            2.19474631370540E+05
 [a.u./Bohr**2] -> [1/cm]                                   5.14048714338585E+03
 

 CELL_TOP| Volume [angstrom^3]:                                      2198.132028
 CELL_TOP| Vector a [angstrom    15.120     0.000     0.000   |a| =    15.120000
 CELL_TOP| Vector b [angstrom     0.000    15.120     0.000   |b| =    15.120000
 CELL_TOP| Vector c [angstrom     0.000     0.000     9.615   |c| =     9.615020
 CELL_TOP| Angle (b,c), alpha [degree]:                                90.000000
 CELL_TOP| Angle (a,c), beta  [degree]:                                90.000000
 CELL_TOP| Angle (a,b), gamma [degree]:                                90.000000
 CELL_TOP| Requested initial symmetry:                       MONOCLINIC_GAMMA_AB
 CELL_TOP| Numerically orthorhombic:                                         YES
 CELL_TOP| Periodicity                                                       XYZ

 *** WARNING in atoms_input.F:123 :: Overwriting coordinates. Active    ***
 *** coordinates read from &COORD section. Active coordinates READ from ***
 *** &COORD section                                                     ***


 GENERATE|  Preliminary Number of Bonds generated:                             0
 GENERATE|  Achieved consistency in connectivity generation.

 CELL| Volume [angstrom^3]:                                          2198.132028
 CELL| Vector a [angstrom]:      15.120     0.000     0.000   |a| =    15.120000
 CELL| Vector b [angstrom]:       0.000    15.120     0.000   |b| =    15.120000
 CELL| Vector c [angstrom]:       0.000     0.000     9.615   |c| =     9.615020
 CELL| Angle (b,c), alpha [degree]:                                    90.000000
 CELL| Angle (a,c), beta  [degree]:                                    90.000000
 CELL| Angle (a,b), gamma [degree]:                                    90.000000
 CELL| Requested initial symmetry:                           MONOCLINIC_GAMMA_AB
 CELL| Numerically orthorhombic:                                             YES
 CELL| Periodicity                                                           XYZ

 CELL_REF| Volume [angstrom^3]:                                      2198.132028
 CELL_REF| Vector a [angstrom    15.120     0.000     0.000   |a| =    15.120000
 CELL_REF| Vector b [angstrom     0.000    15.120     0.000   |b| =    15.120000
 CELL_REF| Vector c [angstrom     0.000     0.000     9.615   |c| =     9.615020
 CELL_REF| Angle (b,c), alpha [degree]:                                90.000000
 CELL_REF| Angle (a,c), beta  [degree]:                                90.000000
 CELL_REF| Angle (a,b), gamma [degree]:                                90.000000
 CELL_REF| Requested initial symmetry:                       MONOCLINIC_GAMMA_AB
 CELL_REF| Numerically orthorhombic:                                         YES
 CELL_REF| Periodicity                                                       XYZ

 *******************************************************************************
 *******************************************************************************
 **                                                                           **
 **     #####                         ##              ##                      **
 **    ##   ##            ##          ##              ##                      **
 **   ##     ##                       ##            ######                    **
 **   ##     ##  ##   ##  ##   #####  ##  ##   ####   ##    #####    #####    **
 **   ##     ##  ##   ##  ##  ##      ## ##   ##      ##   ##   ##  ##   ##   **
 **   ##  ## ##  ##   ##  ##  ##      ####     ###    ##   ######   ######    **
 **    ##  ###   ##   ##  ##  ##      ## ##      ##   ##   ##       ##        **
 **     #######   #####   ##   #####  ##  ##  ####    ##    #####   ##        **
 **           ##                                                    ##        **
 **                                                                           **
 **                                                ... make the atoms dance   **
 **                                                                           **
 **            Copyright (C) by CP2K developers group (2000-2024)             **
 **                      J. Chem. Phys. 152, 194103 (2020)                    **
 **                                                                           **
 *******************************************************************************

 DFT| Spin unrestricted (spin-polarized) Kohn-Sham calculation               UKS
 DFT| Multiplicity                                                             2
 DFT| Number of spin states                                                    2
 DFT| Charge                                                                   1
 DFT| Self-interaction correction (SIC)                                       NO
 DFT| Cutoffs: density                                              1.000000E-10
 DFT|          gradient                                             1.000000E-10
 DFT|          tau                                                  1.000000E-10
 DFT|          cutoff_smoothing_range                               0.000000E+00
 DFT| XC density smoothing                                                  NONE
 DFT| XC derivatives                                                          PW

 DFT+U| Method                                                          MULLIKEN
 DFT+U| Check atomic kind information for details

 FUNCTIONAL| PBE:
 FUNCTIONAL| J.P.Perdew, K.Burke, M.Ernzerhof, Phys. Rev. Letter, vol. 77, n 18,
 FUNCTIONAL|  pp. 3865-3868, (1996) {spin polarized}                            


 QS| Method:                                                                 GPW
 QS| Density plane wave grid type                        NON-SPHERICAL FULLSPACE
 QS| Number of grid levels:                                                    4
 QS| Density cutoff [a.u.]:                                                300.0
 QS| Multi grid cutoff [a.u.]: 1) grid level                               300.0
 QS|                           2) grid level                               100.0
 QS|                           3) grid level                                33.3
 QS|                           4) grid level                                11.1
 QS| Grid level progression factor:                                          3.0
 QS| Relative density cutoff [a.u.]:                                        20.0
 QS| Interaction thresholds: eps_pgf_orb:                                1.0E-06
 QS|                         eps_filter_matrix:                          0.0E+00
 QS|                         eps_core_charge:                            1.0E-14
 QS|                         eps_rho_gspace:                             1.0E-12
 QS|                         eps_rho_rspace:                             1.0E-12
 QS|                         eps_gvg_rspace:                             1.0E-06
 QS|                         eps_ppl:                                    1.0E-02
 QS|                         eps_ppnl:                                   1.0E-08


 ATOMIC KIND INFORMATION

  1. Atomic kind: Ti                                    Number of atoms:      64

     Orbital Basis Set                                    DZVP-MOLOPT-SR-GTH-q12

       Number of orbital shell sets:                                           1
       Number of orbital shells:                                               8
       Number of primitive Cartesian functions:                                6
       Number of Cartesian basis functions:                                   31
       Number of spherical basis functions:                                   26
       Norm type:                                                              2

       Normalised Cartesian orbitals:

                        Set   Shell   Orbital            Exponent    Coefficient

                          1       1    2s                7.884570       0.015554
                                                         3.894698       0.963603
                                                         1.513589      -0.631435
                                                         0.596768      -0.343022
                                                         0.222222      -0.006534
                                                         0.077078       0.007652

                          1       2    3s                7.884570      -0.009340
                                                         3.894698       0.212624
                                                         1.513589      -0.258368
                                                         0.596768      -0.226206
                                                         0.222222       0.039438
                                                         0.077078       0.107179

                          1       3    4s                7.884570       0.276563
                                                         3.894698       0.105452
                                                         1.513589       0.085149
                                                         0.596768       0.882541
                                                         0.222222      -0.696223
                                                         0.077078       0.156638

                          1       4    3px               7.884570      -2.034794
                                                         3.894698       0.782008
                                                         1.513589       1.253903
                                                         0.596768       0.347823
                                                         0.222222       0.016778
                                                         0.077078      -0.000433
                          1       4    3py               7.884570      -2.034794
                                                         3.894698       0.782008
                                                         1.513589       1.253903
                                                         0.596768       0.347823
                                                         0.222222       0.016778
                                                         0.077078      -0.000433
                          1       4    3pz               7.884570      -2.034794
                                                         3.894698       0.782008
                                                         1.513589       1.253903
                                                         0.596768       0.347823
                                                         0.222222       0.016778
                                                         0.077078      -0.000433

                          1       5    4px               7.884570       0.376572
                                                         3.894698      -0.182875
                                                         1.513589      -0.474776
                                                         0.596768      -0.081757
                                                         0.222222       0.064432
                                                         0.077078       0.047279
                          1       5    4py               7.884570       0.376572
                                                         3.894698      -0.182875
                                                         1.513589      -0.474776
                                                         0.596768      -0.081757
                                                         0.222222       0.064432
                                                         0.077078       0.047279
                          1       5    4pz               7.884570       0.376572
                                                         3.894698      -0.182875
                                                         1.513589      -0.474776
                                                         0.596768      -0.081757
                                                         0.222222       0.064432
                                                         0.077078       0.047279

                          1       6    4dx2              7.884570       3.047350
                                                         3.894698       3.289529
                                                         1.513589       1.060616
                                                         0.596768       0.249930
                                                         0.222222       0.038806
                                                         0.077078       0.002319
                          1       6    4dxy              7.884570       5.278165
                                                         3.894698       5.697631
                                                         1.513589       1.837041
                                                         0.596768       0.432892
                                                         0.222222       0.067214
                                                         0.077078       0.004017
                          1       6    4dxz              7.884570       5.278165
                                                         3.894698       5.697631
                                                         1.513589       1.837041
                                                         0.596768       0.432892
                                                         0.222222       0.067214
                                                         0.077078       0.004017
                          1       6    4dy2              7.884570       3.047350
                                                         3.894698       3.289529
                                                         1.513589       1.060616
                                                         0.596768       0.249930
                                                         0.222222       0.038806
                                                         0.077078       0.002319
                          1       6    4dyz              7.884570       5.278165
                                                         3.894698       5.697631
                                                         1.513589       1.837041
                                                         0.596768       0.432892
                                                         0.222222       0.067214
                                                         0.077078       0.004017
                          1       6    4dz2              7.884570       3.047350
                                                         3.894698       3.289529
                                                         1.513589       1.060616
                                                         0.596768       0.249930
                                                         0.222222       0.038806
                                                         0.077078       0.002319

                          1       7    5dx2              7.884570      -2.119015
                                                         3.894698      -1.237751
                                                         1.513589      -0.746777
                                                         0.596768      -0.071514
                                                         0.222222       0.004086
                                                         0.077078       0.017595
                          1       7    5dxy              7.884570      -3.670241
                                                         3.894698      -2.143848
                                                         1.513589      -1.293455
                                                         0.596768      -0.123865
                                                         0.222222       0.007077
                                                         0.077078       0.030475
                          1       7    5dxz              7.884570      -3.670241
                                                         3.894698      -2.143848
                                                         1.513589      -1.293455
                                                         0.596768      -0.123865
                                                         0.222222       0.007077
                                                         0.077078       0.030475
                          1       7    5dy2              7.884570      -2.119015
                                                         3.894698      -1.237751
                                                         1.513589      -0.746777
                                                         0.596768      -0.071514
                                                         0.222222       0.004086
                                                         0.077078       0.017595
                          1       7    5dyz              7.884570      -3.670241
                                                         3.894698      -2.143848
                                                         1.513589      -1.293455
                                                         0.596768      -0.123865
                                                         0.222222       0.007077
                                                         0.077078       0.030475
                          1       7    5dz2              7.884570      -2.119015
                                                         3.894698      -1.237751
                                                         1.513589      -0.746777
                                                         0.596768      -0.071514
                                                         0.222222       0.004086
                                                         0.077078       0.017595

                          1       8    5fx3              7.884570      -0.342058
                                                         3.894698       0.375798
                                                         1.513589      -0.706469
                                                         0.596768      -0.229994
                                                         0.222222      -0.012723
                                                         0.077078       0.003932
                          1       8    5fx2y             7.884570      -0.764866
                                                         3.894698       0.840310
                                                         1.513589      -1.579712
                                                         0.596768      -0.514282
                                                         0.222222      -0.028450
                                                         0.077078       0.008792
                          1       8    5fx2z             7.884570      -0.764866
                                                         3.894698       0.840310
                                                         1.513589      -1.579712
                                                         0.596768      -0.514282
                                                         0.222222      -0.028450
                                                         0.077078       0.008792
                          1       8    5fxy2             7.884570      -0.764866
                                                         3.894698       0.840310
                                                         1.513589      -1.579712
                                                         0.596768      -0.514282
                                                         0.222222      -0.028450
                                                         0.077078       0.008792
                          1       8    5fxyz             7.884570      -1.324787
                                                         3.894698       1.455460
                                                         1.513589      -2.736142
                                                         0.596768      -0.890763
                                                         0.222222      -0.049276
                                                         0.077078       0.015229
                          1       8    5fxz2             7.884570      -0.764866
                                                         3.894698       0.840310
                                                         1.513589      -1.579712
                                                         0.596768      -0.514282
                                                         0.222222      -0.028450
                                                         0.077078       0.008792
                          1       8    5fy3              7.884570      -0.342058
                                                         3.894698       0.375798
                                                         1.513589      -0.706469
                                                         0.596768      -0.229994
                                                         0.222222      -0.012723
                                                         0.077078       0.003932
                          1       8    5fy2z             7.884570      -0.764866
                                                         3.894698       0.840310
                                                         1.513589      -1.579712
                                                         0.596768      -0.514282
                                                         0.222222      -0.028450
                                                         0.077078       0.008792
                          1       8    5fyz2             7.884570      -0.764866
                                                         3.894698       0.840310
                                                         1.513589      -1.579712
                                                         0.596768      -0.514282
                                                         0.222222      -0.028450
                                                         0.077078       0.008792
                          1       8    5fz3              7.884570      -0.342058
                                                         3.894698       0.375798
                                                         1.513589      -0.706469
                                                         0.596768      -0.229994
                                                         0.222222      -0.012723
                                                         0.077078       0.003932

       Atomic covalent radius [Angstrom]:                                  1.320

       Atomic van der Waals radius [Angstrom]:                             1.760

     GTH Potential information for                                   GTH-PBE-q12

       Description:                       Goedecker-Teter-Hutter pseudopotential
                                           Goedecker et al., PRB 54, 1703 (1996)
                                          Hartwigsen et al., PRB 58, 3641 (1998)
                                                      Krack, TCA 114, 145 (2005)

       Gaussian exponent of the core charge distribution:               3.462604
       Electronic configuration (s p d ...):                           4   6   2

       Parameters of the local part of the GTH pseudopotential:

                          rloc        C1          C2          C3          C4
                        0.380000    8.711442   -0.700287

       Parameters of the non-local part of the GTH pseudopotential:

                   l      r(l)      h(i,j,l)

                   0    0.337771    2.575264    3.692971
                                    3.692971   -4.767605
                   1    0.242531   -4.630541    8.870875
                                    8.870875  -10.496161
                   2    0.243317   -9.406653

  2. Atomic kind: O                                     Number of atoms:     128

     Orbital Basis Set                                     DZVP-MOLOPT-SR-GTH-q6

       Number of orbital shell sets:                                           1
       Number of orbital shells:                                               5
       Number of primitive Cartesian functions:                                5
       Number of Cartesian basis functions:                                   14
       Number of spherical basis functions:                                   13
       Norm type:                                                              2

       Normalised Cartesian orbitals:

                        Set   Shell   Orbital            Exponent    Coefficient

                          1       1    2s               10.389228       0.396646
                                                         3.849621       0.208811
                                                         1.388401      -0.301641
                                                         0.496955      -0.274061
                                                         0.162492      -0.033677

                          1       2    3s               10.389228       0.303673
                                                         3.849621       0.240943
                                                         1.388401      -0.313066
                                                         0.496955      -0.043055
                                                         0.162492       0.213991

                          1       3    3px              10.389228      -1.530415
                                                         3.849621      -1.371928
                                                         1.388401      -0.761951
                                                         0.496955      -0.253695
                                                         0.162492      -0.035541
                          1       3    3py              10.389228      -1.530415
                                                         3.849621      -1.371928
                                                         1.388401      -0.761951
                                                         0.496955      -0.253695
                                                         0.162492      -0.035541
                          1       3    3pz              10.389228      -1.530415
                                                         3.849621      -1.371928
                                                         1.388401      -0.761951
                                                         0.496955      -0.253695
                                                         0.162492      -0.035541

                          1       4    4px              10.389228      -0.565392
                                                         3.849621      -0.038231
                                                         1.388401      -0.382373
                                                         0.496955       0.179070
                                                         0.162492       0.122714
                          1       4    4py              10.389228      -0.565392
                                                         3.849621      -0.038231
                                                         1.388401      -0.382373
                                                         0.496955       0.179070
                                                         0.162492       0.122714
                          1       4    4pz              10.389228      -0.565392
                                                         3.849621      -0.038231
                                                         1.388401      -0.382373
                                                         0.496955       0.179070
                                                         0.162492       0.122714

                          1       5    4dx2             10.389228       1.867377
                                                         3.849621       0.670994
                                                         1.388401       1.353441
                                                         0.496955       0.273538
                                                         0.162492       0.006620
                          1       5    4dxy             10.389228       3.234392
                                                         3.849621       1.162195
                                                         1.388401       2.344229
                                                         0.496955       0.473781
                                                         0.162492       0.011466
                          1       5    4dxz             10.389228       3.234392
                                                         3.849621       1.162195
                                                         1.388401       2.344229
                                                         0.496955       0.473781
                                                         0.162492       0.011466
                          1       5    4dy2             10.389228       1.867377
                                                         3.849621       0.670994
                                                         1.388401       1.353441
                                                         0.496955       0.273538
                                                         0.162492       0.006620
                          1       5    4dyz             10.389228       3.234392
                                                         3.849621       1.162195
                                                         1.388401       2.344229
                                                         0.496955       0.473781
                                                         0.162492       0.011466
                          1       5    4dz2             10.389228       1.867377
                                                         3.849621       0.670994
                                                         1.388401       1.353441
                                                         0.496955       0.273538
                                                         0.162492       0.006620

       Atomic covalent radius [Angstrom]:                                  0.730

       Atomic van der Waals radius [Angstrom]:                             1.520

     GTH Potential information for                                    GTH-PBE-q6

       Description:                       Goedecker-Teter-Hutter pseudopotential
                                           Goedecker et al., PRB 54, 1703 (1996)
                                          Hartwigsen et al., PRB 58, 3641 (1998)
                                                      Krack, TCA 114, 145 (2005)

       Gaussian exponent of the core charge distribution:               8.360253
       Electronic configuration (s p d ...):                               2   4

       Parameters of the local part of the GTH pseudopotential:

                          rloc        C1          C2          C3          C4
                        0.244554  -16.667215    2.487311

       Parameters of the non-local part of the GTH pseudopotential:

                   l      r(l)      h(i,j,l)

                   0    0.220956   18.337458
                   1    0.211332

     A DFT+U correction is applied to atoms of this atomic kind:
       Angular quantum momentum number L:                                      1
       U(eff) = (U - J) value in [eV]:                                     4.000


 MOLECULE KIND INFORMATION


 All atoms are their own molecule, skipping detailed information


 TOTAL NUMBERS AND MAXIMUM NUMBERS

  Total number of            - Atomic kinds:                                   2
                             - Atoms:                                        192
                             - Shell sets:                                   192
                             - Shells:                                      1152
                             - Primitive Cartesian functions:               1024
                             - Cartesian basis functions:                   3776
                             - Spherical basis functions:                   3328

  Maximum angular momentum of- Orbital basis functions:                        3
                             - Local part of the GTH pseudopotential:          2
                             - Non-local part of the GTH pseudopotential:      3


 MODULE QUICKSTEP: ATOMIC COORDINATES IN ANGSTROM

   Atom Kind Element         X             Y             Z       Z(eff)     Mass
      1    1 Ti   22      0.000966      0.000963      0.000000  12.0000  47.8670
      2    1 Ti   22      1.888341      1.888347      4.807508  12.0000  47.8670
      3    1 Ti   22      0.000944      1.888351      2.402001  12.0000  47.8670
      4    1 Ti   22      1.888358      0.000940      7.213015  12.0000  47.8670
      5    1 Ti   22      0.000941      3.776220      0.002923  12.0000  47.8670
      6    1 Ti   22      1.888368     13.237658      4.805725  12.0000  47.8670
      7    1 Ti   22     11.350327      1.888341      2.403680  12.0000  47.8670
      8    1 Ti   22      5.669028      0.000927      7.217273  12.0000  47.8670
      9    1 Ti   22      1.888339      3.776196      7.210054  12.0000  47.8670
     10    1 Ti   22      0.000965     13.237633      2.403791  12.0000  47.8670
     11    1 Ti   22      5.669040      1.888377      4.803230  12.0000  47.8670
     12    1 Ti   22     11.350307      0.000944     -0.001684  12.0000  47.8670
     13    1 Ti   22      3.776220      0.000950     -0.002917  12.0000  47.8670
     14    1 Ti   22     13.237656      1.888360      4.809296  12.0000  47.8670
     15    1 Ti   22     13.237642      0.000959      7.211238  12.0000  47.8670
     16    1 Ti   22      3.776202      1.888348      2.404966  12.0000  47.8670
     17    1 Ti   22      1.888373      5.669042      4.811789  12.0000  47.8670
     18    1 Ti   22      0.000944     11.350314      0.001680  12.0000  47.8670
     19    1 Ti   22      0.000927      5.669029      2.397742  12.0000  47.8670
     20    1 Ti   22      1.888346     11.350319      7.211339  12.0000  47.8670
     21    1 Ti   22      0.000931      7.569880      0.005971  12.0000  47.8670
     22    1 Ti   22      1.888355      9.462592      4.808614  12.0000  47.8670
     23    1 Ti   22      7.569875      1.888372      2.407994  12.0000  47.8670
     24    1 Ti   22      9.462565      0.000937      7.214086  12.0000  47.8670
     25    1 Ti   22      1.888368      7.569867      7.207027  12.0000  47.8670
     26    1 Ti   22      0.000942      9.462566      2.400937  12.0000  47.8670
     27    1 Ti   22      9.462592      1.888356      4.806407  12.0000  47.8670
     28    1 Ti   22      7.569872      0.000936     -0.005970  12.0000  47.8670
     29    1 Ti   22      3.776202      3.776212     -0.000002  12.0000  47.8670
     30    1 Ti   22     13.237648     13.237647      4.807516  12.0000  47.8670
     31    1 Ti   22     11.350294      5.669039      2.399404  12.0000  47.8670
     32    1 Ti   22      5.669042     11.350286      7.215614  12.0000  47.8670
     33    1 Ti   22     13.237652      3.776216      7.208318  12.0000  47.8670
     34    1 Ti   22      3.776224     13.237654      2.406706  12.0000  47.8670
     35    1 Ti   22      5.668991      5.668996      4.807506  12.0000  47.8670
     36    1 Ti   22     11.350325     11.350328     -0.000001  12.0000  47.8670
     37    1 Ti   22     11.350313     13.237653      2.405471  12.0000  47.8670
     38    1 Ti   22      5.669017      3.776236      7.214383  12.0000  47.8670
     39    1 Ti   22      3.776202     11.350330     -0.001283  12.0000  47.8670
     40    1 Ti   22     13.237671      5.669031      4.813550  12.0000  47.8670
     41    1 Ti   22      5.669041     13.237674      4.801472  12.0000  47.8670
     42    1 Ti   22     11.350316      3.776202      0.001282  12.0000  47.8670
     43    1 Ti   22     13.237658     11.350299      7.209550  12.0000  47.8670
     44    1 Ti   22      3.776235      5.669020      2.400635  12.0000  47.8670
     45    1 Ti   22      3.776236      7.569892      0.003073  12.0000  47.8670
     46    1 Ti   22     13.237664      9.462569      4.810357  12.0000  47.8670
     47    1 Ti   22      7.569916      5.668991      2.403707  12.0000  47.8670
     48    1 Ti   22      9.462589     11.350313      7.212441  12.0000  47.8670
     49    1 Ti   22     13.237670      7.569870      7.205266  12.0000  47.8670
     50    1 Ti   22      3.776204      9.462579      2.403856  12.0000  47.8670
     51    1 Ti   22      9.462547      5.669033      4.810736  12.0000  47.8670
     52    1 Ti   22      7.569874     11.350306     -0.004306  12.0000  47.8670
     53    1 Ti   22     11.350320      9.462584      2.402574  12.0000  47.8670
     54    1 Ti   22      5.668986      7.569908      7.211310  12.0000  47.8670
     55    1 Ti   22      5.669032      9.462551      4.804282  12.0000  47.8670
     56    1 Ti   22     11.350296      7.569873      0.004303  12.0000  47.8670
     57    1 Ti   22      9.462575      3.776201      7.211162  12.0000  47.8670
     58    1 Ti   22      7.569879     13.237673      2.409756  12.0000  47.8670
     59    1 Ti   22      7.569881      3.776239     -0.003073  12.0000  47.8670
     60    1 Ti   22      9.462575     13.237669      4.804665  12.0000  47.8670
     61    1 Ti   22      7.569911      7.569919      0.000000  12.0000  47.8670
     62    1 Ti   22      9.462591      9.462592      4.807507  12.0000  47.8670
     63    1 Ti   22      7.569884      9.462549      2.406929  12.0000  47.8670
     64    1 Ti   22      9.462544      7.569883      7.208089  12.0000  47.8670
     65    2 O     8      0.000580      0.001665      1.989399   6.0000  15.9994
     66    2 O     8      1.884657      1.887514      6.797226   6.0000  15.9994
     67    2 O     8      0.001648      1.884631      4.393283   6.0000  15.9994
     68    2 O     8      1.887538      0.000586      9.200856   6.0000  15.9994
     69    2 O     8      1.884632      0.001648      5.221737   6.0000  15.9994
     70    2 O     8      0.000586      1.887538      0.414164   6.0000  15.9994
     71    2 O     8      1.887514      1.884657      2.817794   6.0000  15.9994
     72    2 O     8      0.001666      0.000580      7.625620   6.0000  15.9994
     73    2 O     8      0.000626      3.775938      1.986735   6.0000  15.9994
     74    2 O     8      1.884633     13.236904      6.797045   6.0000  15.9994
     75    2 O     8     11.351104      1.884651      4.393515   6.0000  15.9994
     76    2 O     8      5.672262      0.000591      9.201874   6.0000  15.9994
     77    2 O     8      1.884761      3.775894      5.224345   6.0000  15.9994
     78    2 O     8      0.000580     13.236890      0.414351   6.0000  15.9994
     79    2 O     8      5.672227      1.884737      2.816849   6.0000  15.9994
     80    2 O     8     11.351083      0.000584      7.625384   6.0000  15.9994
     81    2 O     8      3.775939      0.000628      7.628282   6.0000  15.9994
     82    2 O     8     13.236904      1.884632      2.817975   6.0000  15.9994
     83    2 O     8     13.236892      0.000580      9.200667   6.0000  15.9994
     84    2 O     8      3.775896      1.884762      4.390673   6.0000  15.9994
     85    2 O     8      1.884737      5.672224      6.798171   6.0000  15.9994
     86    2 O     8      0.000584     11.351084      1.989639   6.0000  15.9994
     87    2 O     8      0.000591      5.672264      0.413146   6.0000  15.9994
     88    2 O     8      1.884651     11.351103      5.221505   6.0000  15.9994
     89    2 O     8      0.000589      7.566724      1.990676   6.0000  15.9994
     90    2 O     8      1.884758      9.462830      6.794522   6.0000  15.9994
     91    2 O     8      7.566765      1.884735      4.394485   6.0000  15.9994
     92    2 O     8      9.462789      0.000624      9.198094   6.0000  15.9994
     93    2 O     8      1.884734      7.566762      5.220536   6.0000  15.9994
     94    2 O     8      0.000624      9.462789      0.416927   6.0000  15.9994
     95    2 O     8      9.462830      1.884758      2.820498   6.0000  15.9994
     96    2 O     8      7.566724      0.000590      7.624345   6.0000  15.9994
     97    2 O     8      3.769506      0.001646      1.989964   6.0000  15.9994
     98    2 O     8     13.237888      1.887537      6.797081   6.0000  15.9994
     99    2 O     8      0.001654      5.655598      4.393306   6.0000  15.9994
    100    2 O     8      1.887516     11.353885      9.200986   6.0000  15.9994
    101    2 O     8     13.237893      0.001666      5.221883   6.0000  15.9994
    102    2 O     8      3.769571      1.887529      0.413638   6.0000  15.9994
    103    2 O     8      1.887575      5.655739      2.817791   6.0000  15.9994
    104    2 O     8      0.001648     11.353910      7.625489   6.0000  15.9994
    105    2 O     8     11.353886      1.887515      0.414032   6.0000  15.9994
    106    2 O     8      5.655600      0.001656      5.221712   6.0000  15.9994
    107    2 O     8      5.655739      1.887576      6.797227   6.0000  15.9994
    108    2 O     8     11.353909      0.001648      1.989532   6.0000  15.9994
    109    2 O     8      1.887529      3.769571      9.201382   6.0000  15.9994
    110    2 O     8      0.001665     13.237892      4.393135   6.0000  15.9994
    111    2 O     8      0.001646      3.769505      7.625054   6.0000  15.9994
    112    2 O     8      1.887538     13.237887      2.817939   6.0000  15.9994
    113    2 O     8      3.769735      3.775897      1.987372   6.0000  15.9994
    114    2 O     8     13.237893     13.236891      6.796894   6.0000  15.9994
    115    2 O     8     11.351042      5.655727      4.393515   6.0000  15.9994
    116    2 O     8      5.672226     11.353810      9.201929   6.0000  15.9994
    117    2 O     8     13.237850      3.775939      5.224547   6.0000  15.9994
    118    2 O     8      3.769508     13.236905      0.413781   6.0000  15.9994
    119    2 O     8      5.672244      5.656031      2.816641   6.0000  15.9994
    120    2 O     8     11.351103     11.353892      7.625256   6.0000  15.9994
    121    2 O     8     11.353911     13.236903      0.414216   6.0000  15.9994
    122    2 O     8      5.655936      3.775950      5.224246   6.0000  15.9994
    123    2 O     8      3.775896     11.353784      7.628093   6.0000  15.9994
    124    2 O     8     13.236896      5.655599      2.817949   6.0000  15.9994
    125    2 O     8      5.655601     13.236897      6.797066   6.0000  15.9994
    126    2 O     8     11.353783      3.775895      1.986925   6.0000  15.9994
    127    2 O     8     13.236904     11.353909      9.200805   6.0000  15.9994
    128    2 O     8      3.775946      5.655935      4.390774   6.0000  15.9994
    129    2 O     8      5.656031      5.672248      6.798382   6.0000  15.9994
    130    2 O     8     11.353891     11.351104      1.989766   6.0000  15.9994
    131    2 O     8     13.236906      3.769505      9.201237   6.0000  15.9994
    132    2 O     8      3.775939     13.237851      4.390470   6.0000  15.9994
    133    2 O     8     11.353810      5.672225      0.413090   6.0000  15.9994
    134    2 O     8      5.655726     11.351042      5.221503   6.0000  15.9994
    135    2 O     8      3.775899      3.769737      7.627650   6.0000  15.9994
    136    2 O     8     13.236890     13.237893      2.818125   6.0000  15.9994
    137    2 O     8     13.237890     11.351081      5.221648   6.0000  15.9994
    138    2 O     8      3.769748      5.672207      0.412658   6.0000  15.9994
    139    2 O     8      5.672265     13.237885      2.816917   6.0000  15.9994
    140    2 O     8     11.351087      3.769561      7.624863   6.0000  15.9994
    141    2 O     8      3.769560     11.351090      1.990157   6.0000  15.9994
    142    2 O     8     13.237885      5.672260      6.798104   6.0000  15.9994
    143    2 O     8     11.351084     13.237890      4.393375   6.0000  15.9994
    144    2 O     8      5.672209      3.769749      9.202364   6.0000  15.9994
    145    2 O     8      3.769746      7.566779      1.991161   6.0000  15.9994
    146    2 O     8     13.237853      9.462788      6.794320   6.0000  15.9994
    147    2 O     8      7.566737      5.656028      4.394692   6.0000  15.9994
    148    2 O     8      9.462828     11.353787      9.198284   6.0000  15.9994
    149    2 O     8     13.237886      7.566720      5.220607   6.0000  15.9994
    150    2 O     8      3.769732      9.462823      0.416293   6.0000  15.9994
    151    2 O     8      9.462769      5.655931      2.820409   6.0000  15.9994
    152    2 O     8      7.566762     11.353811      7.624287   6.0000  15.9994
    153    2 O     8     11.353787      9.462828      0.416737   6.0000  15.9994
    154    2 O     8      5.656027      7.566734      5.220329   6.0000  15.9994
    155    2 O     8      5.655931      9.462771      6.794610   6.0000  15.9994
    156    2 O     8     11.353810      7.566762      1.990734   6.0000  15.9994
    157    2 O     8      9.462823      3.769732      9.198726   6.0000  15.9994
    158    2 O     8      7.566720     13.237888      4.394417   6.0000  15.9994
    159    2 O     8      7.566778      3.769749      7.623858   6.0000  15.9994
    160    2 O     8      9.462787     13.237853      2.820704   6.0000  15.9994
    161    2 O     8      7.583030      0.001653      1.989572   6.0000  15.9994
    162    2 O     8      9.469014      1.887529      6.797612   6.0000  15.9994
    163    2 O     8      0.001644      9.469076      4.393704   6.0000  15.9994
    164    2 O     8      1.887569      7.582902      9.201001   6.0000  15.9994
    165    2 O     8      9.469077      0.001646      5.221315   6.0000  15.9994
    166    2 O     8      7.582901      1.887570      0.414018   6.0000  15.9994
    167    2 O     8      1.887526      9.469015      2.817407   6.0000  15.9994
    168    2 O     8      0.001653      7.583029      7.625447   6.0000  15.9994
    169    2 O     8      7.582702      3.775941      1.987035   6.0000  15.9994
    170    2 O     8      9.469076     13.236907      6.797468   6.0000  15.9994
    171    2 O     8     11.351088      9.469024      4.393899   6.0000  15.9994
    172    2 O     8      5.672239      7.582612      9.202134   6.0000  15.9994
    173    2 O     8      9.468853      3.775898      5.223915   6.0000  15.9994
    174    2 O     8      7.583034     13.236899      0.414176   6.0000  15.9994
    175    2 O     8      5.672204      9.468844      2.816424   6.0000  15.9994
    176    2 O     8     11.351050      7.582912      7.625242   6.0000  15.9994
    177    2 O     8      3.775941      7.582701      7.627984   6.0000  15.9994
    178    2 O     8     13.236904      9.469075      2.817553   6.0000  15.9994
    179    2 O     8     13.236900      7.583033      9.200843   6.0000  15.9994
    180    2 O     8      3.775894      9.468853      4.391104   6.0000  15.9994
    181    2 O     8      9.468843      5.672213      6.798592   6.0000  15.9994
    182    2 O     8      7.582912     11.351051      1.989778   6.0000  15.9994
    183    2 O     8      7.582612      5.672241      0.412887   6.0000  15.9994
    184    2 O     8      9.469023     11.351089      5.221123   6.0000  15.9994
    185    2 O     8      7.582617      7.566744      1.990936   6.0000  15.9994
    186    2 O     8      9.468858      9.462827      6.794952   6.0000  15.9994
    187    2 O     8      7.566769      9.468847      4.394901   6.0000  15.9994
    188    2 O     8      9.462779      7.582705      9.198381   6.0000  15.9994
    189    2 O     8      9.468845      7.566782      5.220117   6.0000  15.9994
    190    2 O     8      7.582705      9.462777      0.416640   6.0000  15.9994
    191    2 O     8      9.462823      9.468858      2.820070   6.0000  15.9994
    192    2 O     8      7.566745      7.582619      7.624086   6.0000  15.9994



 SCF PARAMETERS         Density guess:                                   RESTART
                        --------------------------------------------------------
                        max_scf:                                              40
                        max_scf_history:                                       0
                        max_diis:                                              4
                        --------------------------------------------------------
                        eps_scf:                                        1.00E-06
                        eps_scf_history:                                0.00E+00
                        eps_diis:                                       1.00E-01
                        eps_eigval:                                     1.00E-05
                        --------------------------------------------------------
                        level_shift [a.u.]:                             0.000000
                        --------------------------------------------------------
                        Outer loop SCF in use 
                        No variables optimised in outer loop
                        eps_scf                                         1.00E-06
                        max_scf                                               60
                        No outer loop optimization
                        step_size                                       5.00E-01

 PW_GRID| Information for grid number                                          1
 PW_GRID| Grid distributed over                                   128 processors
 PW_GRID| Real space group dimensions                                   128    1
 PW_GRID| the grid is blocked:                                                NO
 PW_GRID| Cutoff [a.u.]                                                    300.0
 PW_GRID| spherical cutoff:                                                   NO
 PW_GRID|   Bounds   1           -112     112                Points:         225
 PW_GRID|   Bounds   2           -112     112                Points:         225
 PW_GRID|   Bounds   3            -72      71                Points:         144
 PW_GRID| Volume element (a.u.^3)  0.2035E-02     Volume (a.u.^3)     14833.7304
 PW_GRID| Grid span                                                    FULLSPACE
 PW_GRID|   Distribution                         Average         Max         Min
 PW_GRID|   G-Vectors                            56953.1       57150       56925
 PW_GRID|   G-Rays                                 253.1         254         253
 PW_GRID|   Real Space Points                    56953.1       64800       32400

 PW_GRID| Information for grid number                                          2
 PW_GRID| Number of the reference grid                                         1
 PW_GRID| Grid distributed over                                   128 processors
 PW_GRID| Real space group dimensions                                   128    1
 PW_GRID| the grid is blocked:                                                NO
 PW_GRID| Cutoff [a.u.]                                                    100.0
 PW_GRID| spherical cutoff:                                                   NO
 PW_GRID|   Bounds   1            -67      67                Points:         135
 PW_GRID|   Bounds   2            -67      67                Points:         135
 PW_GRID|   Bounds   3            -40      40                Points:          81
 PW_GRID| Volume element (a.u.^3)  0.1005E-01     Volume (a.u.^3)     14833.7304
 PW_GRID| Grid span                                                    FULLSPACE
 PW_GRID|   Distribution                         Average         Max         Min
 PW_GRID|   G-Vectors                            11533.0       12150       10800
 PW_GRID|   G-Rays                                  85.4          90          80
 PW_GRID|   Real Space Points                    11533.0       21870       10935

 PW_GRID| Information for grid number                                          3
 PW_GRID| Number of the reference grid                                         1
 PW_GRID| Grid distributed over                                   128 processors
 PW_GRID| Real space group dimensions                                     8   16
 PW_GRID| the grid is blocked:                                                NO
 PW_GRID| Cutoff [a.u.]                                                     33.3
 PW_GRID| spherical cutoff:                                                   NO
 PW_GRID|   Bounds   1            -37      37                Points:          75
 PW_GRID|   Bounds   2            -37      37                Points:          75
 PW_GRID|   Bounds   3            -24      23                Points:          48
 PW_GRID| Volume element (a.u.^3)  0.5494E-01     Volume (a.u.^3)     14833.7304
 PW_GRID| Grid span                                                    FULLSPACE
 PW_GRID|   Distribution                         Average         Max         Min
 PW_GRID|   G-Vectors                             2109.4        2475        1725
 PW_GRID|   G-Rays                                  28.1          33          23
 PW_GRID|   Real Space Points                     2109.4        2400        1728

 PW_GRID| Information for grid number                                          4
 PW_GRID| Number of the reference grid                                         1
 PW_GRID| Grid distributed over                                   128 processors
 PW_GRID| Real space group dimensions                                     8   16
 PW_GRID| the grid is blocked:                                                NO
 PW_GRID| Cutoff [a.u.]                                                     11.1
 PW_GRID| spherical cutoff:                                                   NO
 PW_GRID|   Bounds   1            -22      22                Points:          45
 PW_GRID|   Bounds   2            -22      22                Points:          45
 PW_GRID|   Bounds   3            -13      13                Points:          27
 PW_GRID| Volume element (a.u.^3)  0.2713         Volume (a.u.^3)     14833.7304
 PW_GRID| Grid span                                                    FULLSPACE
 PW_GRID|   Distribution                         Average         Max         Min
 PW_GRID|   G-Vectors                              427.1         585         270
 PW_GRID|   G-Rays                                   9.5          13           6
 PW_GRID|   Real Space Points                      427.1         486         270

 POISSON| Solver                                                        PERIODIC
 POISSON| Periodicity                                                        XYZ

 RS_GRID| Information for grid number                                          1
 RS_GRID|   Bounds   1           -112     112                Points:         225
 RS_GRID|   Bounds   2           -112     112                Points:         225
 RS_GRID|   Bounds   3            -72      71                Points:         144
 RS_GRID| Real space distribution over                                  8 groups
 RS_GRID| Real space distribution along direction                              1
 RS_GRID| Border size                                                         26
 RS_GRID| Real space distribution over                                 16 groups
 RS_GRID| Real space distribution along direction                              2
 RS_GRID| Border size                                                         26
 RS_GRID|   Distribution                         Average         Max         Min
 RS_GRID|   Planes                                  80.1          81          80
 RS_GRID|   Distribution                         Average         Max         Min
 RS_GRID|   Planes                                  66.1          67          66

 RS_GRID| Information for grid number                                          2
 RS_GRID|   Bounds   1            -67      67                Points:         135
 RS_GRID|   Bounds   2            -67      67                Points:         135
 RS_GRID|   Bounds   3            -40      40                Points:          81
 RS_GRID| Real space distribution over                                  8 groups
 RS_GRID| Real space distribution along direction                              1
 RS_GRID| Border size                                                         24
 RS_GRID| Real space distribution over                                 16 groups
 RS_GRID| Real space distribution along direction                              2
 RS_GRID| Border size                                                         24
 RS_GRID|   Distribution                         Average         Max         Min
 RS_GRID|   Planes                                  64.9          65          64
 RS_GRID|   Distribution                         Average         Max         Min
 RS_GRID|   Planes                                  56.4          57          56

 RS_GRID| Information for grid number                                          3
 RS_GRID|   Bounds   1            -37      37                Points:          75
 RS_GRID|   Bounds   2            -37      37                Points:          75
 RS_GRID|   Bounds   3            -24      23                Points:          48
 RS_GRID| Real space fully replicated
 RS_GRID| Group size                                                           1

 RS_GRID| Information for grid number                                          4
 RS_GRID|   Bounds   1            -22      22                Points:          45
 RS_GRID|   Bounds   2            -22      22                Points:          45
 RS_GRID|   Bounds   3            -13      13                Points:          27
 RS_GRID| Real space fully replicated
 RS_GRID| Group size                                                           1

 BFGS| Use rational function optimization for step estimation:                NO
 BFGS| Use model Hessian for initial guess:                                  YES
 BFGS| Restart Hessian:                                                       NO
 BFGS| Trust radius:                                                       0.472

 *******************************************************************************
 ***                     STARTING GEOMETRY OPTIMIZATION                      ***
 ***                                   BFGS                                  ***
 *******************************************************************************

 Spin 1

 Number of electrons:                                                        768
 Number of occupied orbitals:                                                768
 Number of molecular orbitals:                                               768

 Spin 2

 Number of electrons:                                                        767
 Number of occupied orbitals:                                                767
 Number of molecular orbitals:                                               767

 Number of orbital functions:                                               3328
 Number of independent orbital functions:                                   3328

 Extrapolation method: initial_guess

 *** WARNING in qs_initial_guess.F:306 :: User requested to restart the    ***
 *** wavefunction from the file named: tio2-RESTART.wfn. This file does    ***
 *** not exist. Please check the existence of the file or change properly  ***
 *** the value of the keyword WFN_RESTART_FILE_NAME. Calculation continues ***
 *** using ATOMIC GUESS.                                                   ***


 Atomic guess: The first density matrix is obtained in terms of atomic orbitals
               and electronic configurations assigned to each atomic kind

 Guess for atomic kind: Ti

 Electronic structure
    Total number of core electrons                                         10.00
    Total number of valence electrons                                      12.00
    Total number of electrons                                              22.00
    Multiplicity                                                   not specified
    S   [  2.00  2.00] 2.00  2.00
    P   [  6.00] 6.00
    D      2.00


 *******************************************************************************
                  Iteration          Convergence                     Energy [au]
 *******************************************************************************
                          1         2.59099                     -56.573945749309
                          2        0.737518                     -57.461623245624
                          3        0.123244E-01                 -57.676656834797
                          4        0.338536E-02                 -57.676690535970
                          5        0.252157E-03                 -57.676697146183
                          6        0.162704E-05                 -57.676697160103
                          7        0.846593E-06                 -57.676697160104

 Energy components [Hartree]           Total Energy ::          -57.676697160104
                                        Band Energy ::          -13.440549799540
                                     Kinetic Energy ::           25.008468428381
                                   Potential Energy ::          -82.685165588485
                                      Virial (-V/T) ::            3.306286661467
                                        Core Energy ::          -97.155838374470
                                          XC Energy ::           -6.919409696495
                                     Coulomb Energy ::           46.398550910862
                       Total Pseudopotential Energy ::         -122.259340742080
                       Local Pseudopotential Energy ::         -118.928992669456
                    Nonlocal Pseudopotential Energy ::           -3.330348072625
                                        Confinement ::            0.950339392289

 Orbital energies  State     L     Occupation   Energy[a.u.]          Energy[eV]

                       1     0          2.000      -2.312566          -62.928123
                       2     0          2.000      -0.123060           -3.348633

                       1     1          6.000      -1.385567          -37.703193

                       1     2          2.000      -0.127948           -3.481643


 Total Electron Density at R=0:                                         0.004726

 Guess for atomic kind: O

 Electronic structure
    Total number of core electrons                                          2.00
    Total number of valence electrons                                       6.00
    Total number of electrons                                               8.00
    Multiplicity                                                   not specified
    S   [  2.00] 2.00
    P      4.00


 *******************************************************************************
                  Iteration          Convergence                     Energy [au]
 *******************************************************************************
                          1        0.702811                     -15.577904332270
                          2        0.612408                     -15.588447180504
                          3        0.955344E-02                 -15.655871208406
                          4        0.223754E-02                 -15.655885053552
                          5        0.157183E-02                 -15.655885461027
                          6        0.124953E-02                 -15.655885607150
                          7        0.312011E-06                 -15.655885858066

 Energy components [Hartree]           Total Energy ::          -15.655885858066
                                        Band Energy ::           -2.983128125584
                                     Kinetic Energy ::           11.754765134683
                                   Potential Energy ::          -27.410650992749
                                      Virial (-V/T) ::            2.331875684345
                                        Core Energy ::          -26.153522949072
                                          XC Energy ::           -3.157392363346
                                     Coulomb Energy ::           13.655029454351
                       Total Pseudopotential Energy ::          -37.943026860963
                       Local Pseudopotential Energy ::          -39.220419683052
                    Nonlocal Pseudopotential Energy ::            1.277392822089
                                        Confinement ::            0.347387772086

 Orbital energies  State     L     Occupation   Energy[a.u.]          Energy[eV]

                       1     0          2.000      -0.861522          -23.443215

                       1     1          4.000      -0.315021           -8.572154


 Total Electron Density at R=0:                                         0.000093

 Spin 1
 Re-scaling the density matrix to get the right number of electrons for spin 1
                  # Electrons              Trace(P)               Scaling factor
                          768               768.001                        1.000

 Spin 2
 Re-scaling the density matrix to get the right number of electrons for spin 2
                  # Electrons              Trace(P)               Scaling factor
                          767               768.001                        0.999


 SCF WAVEFUNCTION OPTIMIZATION

  ----------------------------------- OT ---------------------------------------
  Minimizer      : DIIS                : direct inversion
                                         in the iterative subspace
                                         using   7 DIIS vectors
                                         safer DIIS on
  Preconditioner : FULL_SINGLE_INVERSE : inversion of 
                                         H + eS - 2*(Sc)(c^T*H*c+const)(Sc)^T
  Precond_solver : DEFAULT
  stepsize       :    0.08000000                  energy_gap     :    0.08000000
  eps_taylor     :   0.10000E-15                  max_taylor     :             4
  ----------------------------------- OT ---------------------------------------

  Step     Update method      Time    Convergence         Total energy    Change
  ------------------------------------------------------------------------------
     1 OT DIIS     0.80E-01    2.1     0.01002280     -5655.1578966528 -5.66E+03
     2 OT DIIS     0.80E-01    1.5     0.00724255     -5689.9647804028 -3.48E+01
     3 OT DIIS     0.80E-01    1.5     0.00459001     -5722.6749344939 -3.27E+01
     4 OT DIIS     0.80E-01    1.5     0.00365040     -5732.8764036654 -1.02E+01
     5 OT DIIS     0.80E-01    1.5     0.00266928     -5744.2340050931 -1.14E+01
     6 OT DIIS     0.80E-01    1.5     0.00219993     -5751.1162591986 -6.88E+00
     7 OT DIIS     0.80E-01    1.5     0.00184653     -5757.2129788046 -6.10E+00
     8 OT DIIS     0.80E-01    1.5     0.00147788     -5763.1429794883 -5.93E+00
     9 OT DIIS     0.80E-01    1.5     0.00127780     -5766.7542098690 -3.61E+00
    10 OT DIIS     0.80E-01    1.5     0.00099677     -5770.0125964533 -3.26E+00
    11 OT DIIS     0.80E-01    1.5     0.00090980     -5770.8277659072 -8.15E-01
    12 OT DIIS     0.80E-01    1.5     0.00073746     -5772.6239132527 -1.80E+00
    13 OT DIIS     0.80E-01    1.5     0.00060358     -5773.9816097398 -1.36E+00
    14 OT DIIS     0.80E-01    1.5     0.00049985     -5774.9087865836 -9.27E-01
    15 OT DIIS     0.80E-01    1.5     0.00044910     -5775.3905076063 -4.82E-01
    16 OT DIIS     0.80E-01    1.5     0.00037855     -5775.9183507519 -5.28E-01
    17 OT DIIS     0.80E-01    1.5     0.00035000     -5776.1430355312 -2.25E-01
    18 OT DIIS     0.80E-01    1.5     0.00030466     -5776.4607703861 -3.18E-01
    19 OT DIIS     0.80E-01    1.5     0.00026754     -5776.6761920162 -2.15E-01
    20 OT DIIS     0.80E-01    1.5     0.00025423     -5776.7818752432 -1.06E-01
    21 OT DIIS     0.80E-01    1.5     0.00023105     -5776.9764034947 -1.95E-01
    22 OT DIIS     0.80E-01    1.5     0.00021129     -5777.1012350502 -1.25E-01
    23 OT DIIS     0.80E-01    1.5     0.00019376     -5777.2386694511 -1.37E-01
    24 OT DIIS     0.80E-01    1.5     0.00017313     -5777.3283032217 -8.96E-02
    25 OT DIIS     0.80E-01    1.5     0.00016804     -5777.3831677838 -5.49E-02
    26 OT DIIS     0.80E-01    1.5     0.00014708     -5777.4637677580 -8.06E-02
    27 OT DIIS     0.80E-01    1.5     0.00014304     -5777.5073615469 -4.36E-02
    28 OT DIIS     0.80E-01    1.5     0.00013660     -5777.5330132972 -2.57E-02
    29 OT DIIS     0.80E-01    1.5     0.00013031     -5777.5861956618 -5.32E-02
    30 OT SD       0.80E-01    1.5     0.00012922     -5777.5902271286 -4.03E-03
    31 OT DIIS     0.80E-01    1.5     0.00012543     -5777.5969408950 -6.71E-03
    32 OT DIIS     0.80E-01    1.5     0.00010873     -5777.6761590991 -7.92E-02
    33 OT DIIS     0.80E-01    1.5     0.00010307     -5777.6945618354 -1.84E-02
    34 OT DIIS     0.80E-01    1.5     0.00009547     -5777.7397432258 -4.52E-02
    35 OT DIIS     0.80E-01    1.5     0.00008925     -5777.7625290265 -2.28E-02
    36 OT DIIS     0.80E-01    1.5     0.00008578     -5777.7740310410 -1.15E-02
    37 OT DIIS     0.80E-01    1.5     0.00008338     -5777.7886454641 -1.46E-02
    38 OT DIIS     0.80E-01    1.5     0.00008287     -5777.7907511657 -2.11E-03
    39 OT DIIS     0.80E-01    1.5     0.00008161     -5777.7996769719 -8.93E-03
    40 OT DIIS     0.80E-01    1.4     0.00007911     -5777.8108702528 -1.12E-02

  Leaving inner SCF loop after reaching    40 steps.


  Electronic density on regular grids:      -1534.9999999999        0.0000000001
  Core density on regular grids:             1535.9999999995       -0.0000000005
  Total charge density on r-space grids:        0.9999999996
  Total charge density g-space grids:           0.9999999996

  Overlap energy of the core charge distribution:               0.00000000000322
  Self energy of the core charge distribution:             -12156.89556134359555
  Core Hamiltonian energy:                                   3274.46715708859256
  Hartree energy:                                            4018.33415842110571
  Exchange-correlation energy:                               -924.59944722613272

  DFT+U energy:                                                10.88282280726473

  Total energy:                                             -5777.81087025276156

  outer SCF iter =    1 RMS gradient =   0.79E-04 energy =      -5777.8108702528

  ----------------------------------- OT ---------------------------------------
[...]
 flops   416 x    32 x    64        4279196712960       0.0%    100.0%      0.0%     
 flops    96 x    32 x   208        5337340968960       0.0%    100.0%      0.0%     
 flops   416 x    32 x   208        6664489009152       0.0%    100.0%      0.0%     
 flops   416 x    64 x    64        8059153809408       0.0%    100.0%      0.0%     
 flops    96 x    64 x   208       10068666875904       0.0%    100.0%      0.0%     
 flops    13 x    32 x    13       10262428056192       0.0%    100.0%      0.0%     
 flops    26 x    32 x    26       10591979700224       0.0%    100.0%      0.0%     
 flops    26 x    32 x    13       10591979700224       0.0%    100.0%      0.0%     
 flops    13 x    32 x    26       10591979700224       0.0%    100.0%      0.0%     
 flops   416 x    64 x   208       12586116448256       0.0%    100.0%      0.0%     
 flops inhomo. stacks                    46628846     100.0%      0.0%      0.0%
 flops total                       117.027205E+12       0.0%    100.0%      0.0%
 flops max/rank                      1.217484E+12       0.0%    100.0%      0.0%
 matmuls inhomo. stacks                     67783     100.0%      0.0%      0.0%
 matmuls total                         2775461477       0.0%    100.0%      0.0%
 number of processed stacks              70524615       0.1%     99.9%      0.0%
 average stack size                                     1.0      39.4       0.0
 marketing flops                   127.742931E+12
 -------------------------------------------------------------------------------
 # multiplications                          54596
 max memory usage/rank             377.262080E+06
 # max total images/rank                        2
 # max 3D layers                                1
 # MPI messages exchanged               202660352
 MPI messages size (bytes):
  total size                        19.161843E+12
  min size                           0.000000E+00
  max size                         692.224000E+03
  average size                      94.551516E+03
 MPI breakdown and total messages size (bytes):
             size <=      128           101081200                  2467080
       128 < size <=     8192             8945008              51339642640
      8192 < size <=    32768            24023200             545352130032
     32768 < size <=   131072            31819904            2499830476360
    131072 < size <=  4194304            36791040           16060054308480
   4194304 < size <= 16777216                   0                        0
  16777216 < size                               0                        0
 -------------------------------------------------------------------------------

 *** WARNING in dbcsr_mm.F:301 :: Using a non-square number of MPI ranks ***
 *** might lead to poor performance. Used ranks: 128 Suggested: 121 256  ***

 -------------------------------------------------------------------------------
 -                                                                             -
 -                      DBCSR MESSAGE PASSING PERFORMANCE                      -
 -                                                                             -
 -------------------------------------------------------------------------------
 ROUTINE             CALLS      AVE VOLUME [Bytes]
 MP_Bcast               97                     12.
 MP_Allreduce       278403                     10.
 MP_Alltoall        200355                  29073.
 MP_ISend          3430392                  46640.
 MP_IRecv          3421320                  46364.
 -------------------------------------------------------------------------------

 -------------------------------------------------------------------------------
 -                                                                             -
 -                                DBM STATISTICS                               -
 -                                                                             -
 -------------------------------------------------------------------------------
    M  x    N  x    K                                          COUNT     PERCENT
 -------------------------------------------------------------------------------

 -------------------------------------------------------------------------------
 -                                                                             -
 -                                GRID STATISTICS                              -
 -                                                                             -
 -------------------------------------------------------------------------------
 LP    KERNEL             BACKEND                              COUNT     PERCENT
 5     collocate ortho    CPU                              171476326      25.07%
 5     integrate ortho    CPU                              168777034      24.68%
 6     integrate ortho    CPU                               89672614      13.11%
 6     collocate ortho    CPU                               87688004      12.82%
 4     collocate ortho    CPU                               78297868      11.45%
 4     integrate ortho    CPU                               76151690      11.13%
 0     integrate general  CPU                                5898240       0.86%
 0     collocate general  CPU                                3317760       0.49%
 7     integrate ortho    CPU                                2244044       0.33%
 1     integrate general  CPU                                 344064       0.05%
 2     collocate ortho    CPU                                  38400       0.01%
 3     collocate ortho    CPU                                  23040       0.00%
 -------------------------------------------------------------------------------

 MEMORY| Estimated peak process memory [MiB]                                 360

 -------------------------------------------------------------------------------
 ----                             MULTIGRID INFO                            ----
 -------------------------------------------------------------------------------
 count for grid        1:        3187166          cutoff [a.u.]          300.00
 count for grid        2:        3158951          cutoff [a.u.]          100.00
 count for grid        3:        4208774          cutoff [a.u.]           33.33
 count for grid        4:        4705750          cutoff [a.u.]           11.11
 total gridlevel count  :       15260641

 -------------------------------------------------------------------------------
 -                                                                             -
 -                         MESSAGE PASSING PERFORMANCE                         -
 -                                                                             -
 -------------------------------------------------------------------------------

 ROUTINE             CALLS      AVE VOLUME [Bytes]
 MP_Group                4
 MP_Bcast            38035                   5362.
 MP_Allreduce       103925                    411.
 MP_Sync              7034
 MP_Alltoall         23015                2269199.
 MP_SendRecv        293116                  11544.
 MP_ISendRecv       277368                  11544.
 MP_Wait            414052
 MP_comm_split        2538
 MP_ISend           246752                  78673.
 MP_IRecv           246132                  78863.
 MP_Write_All           90                 355816.
 -------------------------------------------------------------------------------


 -------------------------------------------------------------------------------
 -                                                                             -
 -                           R E F E R E N C E S                               -
 -                                                                             -
 -------------------------------------------------------------------------------
 
 CP2K version 2024.3, the CP2K developers group (2024).
 CP2K is freely available from https://www.cp2k.org/ .
 
 T. D. Kuehne, M. Iannuzzi, M. Del Ben, V. V. Rybkin, P. Seewald, F. Stein, T. 
 Laino, R. Z. Khaliullin, O. Schuett, F. Schiffmann, D. Golze, J. Wilhelm, S. 
 Chulkov, M. H. Bani-Hashemian, V. Weber, U. Borstnik, M. Taillefumier, A. S. 
 Jakobovits, A. Lazzaro, H. Pabst, T. Mueller, R. Schade, M. Guidon, S. 
 Andermatt, N. Holmberg, G. K. Schenter, A. Hehn, A. Bussy, F. Belleflamme, G. 
 Tabacchi, A. Gloess, M. Lass, I. Bethune, C. J. Mundy, C. Plessl, M. Watkins, 
 J. VandeVondele, M. Krack, J. Hutter.
 J. Chem. Phys. 152, 194103 (2020).
 CP2K: An electronic structure and molecular dynamics software package - 
 Quickstep: Efficient and accurate electronic structure calculations.
 https://doi.org/10.1063/5.0007045

 O. Schuett, P. Messmer, J. Hutter, J. VandeVondele.
 Electronic Structure Calculations on Graphics Processing Units, 173-190 (2016).
 GPU-Accelerated Sparse Matrix-Matrix Multiplication for Linear Scaling Density 
 Functional Theory.
 https://doi.org/10.1002/9781118670712.ch8

 A. Heinecke, G. Henry, M. Hutchinson, H. Pabst.
 Proceedings of Intl. Supercomputing Conference, 981-991 (2016).
 LIBXSMM: Accelerating Small Matrix Multiplications by Runtime Code Generation.
 https://doi.org/10.1109/SC.2016.83

 J. Hutter, M. Iannuzzi, F. Schiffmann, J. VandeVondele.
 WIREs Comput Mol Sci. 4, 15-25 (2014).
 CP2K: atomistic simulations of condensed matter systems.
 https://doi.org/10.1002/wcms.1159

 U. Borstnik, J. VandeVondele, V. Weber, J. Hutter.
 Parallel Comput. 40, 47-58 (2014).
 Sparse matrix multiplication: The distributed block-compressed sparse row 
 library.
 https://doi.org/10.1016/j.parco.2014.03.012

 A. Marek, V. Blum, R. Johanni, V. Havu, B. Lang, T. Auckenthaler, A. Heinecke, 
 H. Bungartz, H. Lederer.
 J. Phys. Condens. Matter 26, 213201 (2014).
 The ELPA library: scalable parallel eigenvalue solutions for electronic 
 structure theory and computational science.
 https://doi.org/10.1088/0953-8984/26/21/213201

 J. VandeVondele, J. Hutter.
 J. Chem. Phys. 127, 114105 (2007).
 Gaussian basis sets for accurate calculations on molecular systems in gas and 
 condensed phases.
 https://doi.org/10.1063/1.2770708

 T. D. Khne, M. Krack, F. R. Mohamed, M. Parrinello.
 Phys. Rev. Lett. 98, 066401 (2007).
 Efficient and accurate Car-Parrinello-like approach to Born-Oppenheimer 
 molecular dynamics.
 https://doi.org/10.1103/PhysRevLett.98.066401

 J. VandeVondele, M. Krack, F. Mohamed, M. Parrinello, T. Chassaing, J. Hutter.
 Comput. Phys. Commun. 167, 103-128 (2005).
 QUICKSTEP: Fast and accurate density functional calculations using a mixed 
 Gaussian and plane waves approach.
 https://doi.org/10.1016/j.cpc.2004.12.014

 M. Krack.
 Theor. Chem. Acc. 114, 145-152 (2005).
 Pseudopotentials for H to Kr optimized for gradient-corrected 
 exchange-correlation functionals.
 https://doi.org/10.1007/s00214-005-0655-y

 M. Frigo, S. G. Johnson.
 Proc. IEEE 93, 216-231 (2005).
 The design and implementation of FFTW3.
 https://doi.org/10.1109/JPROC.2004.840301

 J. Kolafa.
 J. Comput. Chem. 25, 335-342 (2004).
 Time-reversible always stable predictor-corrector method for molecular dynamics 
 of polarizable molecules.
 https://doi.org/10.1002/jcc.10385

 J. VandeVondele, J. Hutter.
 J. Chem. Phys. 118, 4365-4369 (2003).
 An efficient orbital transformation method for electronic structure 
 calculations.
 https://doi.org/10.1063/1.1543154

 C. Hartwigsen, S. Goedecker, J. Hutter.
 Phys. Rev. B 58, 3641-3662 (1998).
 Relativistic separable dual-space Gaussian pseudopotentials from H to Rn.
 https://doi.org/10.1103/PhysRevB.58.3641

 S. L. Dudarev, G. A. Botton, S. Y. Savrasov, C. J. Humphreys, A. P. Sutton.
 Phys. Rev. B 57, 1505-1509 (1998).
 Electron-energy-loss spectra and the structural stability of nickel oxide: An 
 LSDA+U study.
 https://doi.org/10.1103/PhysRevB.57.1505

 G. Lippert, J. Hutter, M. Parrinello.
 Mol. Phys. 92, 477-487 (1997).
 A hybrid Gaussian and plane wave density functional scheme.
 https://doi.org/10.1080/002689797170220

 S. L. Dudarev, D. N. Manh, A. P. Sutton.
 Philos. Mag. B 75, 613-628 (1997).
 Effect of Mott-Hubbard correlations on the electronic structure and structural 
 stability of uranium dioxide.
 https://doi.org/10.1080/13642819708202343

 S. Goedecker, M. Teter, J. Hutter.
 Phys. Rev. B 54, 1703-1710 (1996).
 Separable dual-space Gaussian pseudopotentials.
 https://doi.org/10.1103/PhysRevB.54.1703

 J. P. Perdew, K. Burke, M. Ernzerhof.
 Phys. Rev. Lett. 77, 3865-3868 (1996).
 Generalized gradient approximation made simple.
 https://doi.org/10.1103/PhysRevLett.77.3865


 -------------------------------------------------------------------------------
 -                                                                             -
 -                                T I M I N G                                  -
 -                                                                             -
 -------------------------------------------------------------------------------
 SUBROUTINE                       CALLS  ASD         SELF TIME        TOTAL TIME
                                MAXIMUM       AVERAGE  MAXIMUM  AVERAGE  MAXIMUM
 CP2K                                 1  1.0    0.102    0.128  969.519  969.525
 cp_geo_opt                           1  2.0    0.003    0.005  968.501  968.505
 geoopt_bfgs                          1  3.0    0.033    0.040  968.498  968.503
 cp_eval_at                          15  4.0    0.009    0.012  966.939  966.945
 qs_forces                           14  5.0    0.015    0.017  946.671  946.675
 qs_energies                         15  5.9    0.007    0.010  930.423  930.438
 scf_env_do_scf                      15  6.9    0.005    0.008  758.412  758.415
 scf_env_do_scf_inner_loop          532  8.0    0.020    0.124  728.988  729.696
 rebuild_ks_matrix                  546  9.9    0.004    0.005  391.107  392.070
 qs_ks_build_kohn_sham_matrix       546 10.9    0.111    0.129  391.103  392.066
 qs_ks_update_qs_env                554  9.0    0.010    0.016  376.014  376.958
 sum_up_and_integrate               546 11.9    0.023    0.035  246.930  247.034
 integrate_v_rspace                1092 12.9    0.044    0.062  246.275  246.601
 dbcsr_multiply_generic           54596 12.7    1.900    2.081  225.655  232.221
 qs_rho_update_rho_low              547  9.0    0.009    0.011  223.683  223.743
 calculate_rho_elec                1094 10.0    0.405    0.462  223.674  223.733
 grid_integrate_task_list          1092 13.9  179.627  185.867  179.627  185.867
 multiply_cannon                  54596 13.7   10.447   11.289  149.895  172.141
 grid_collocate_task_list          1094 11.0  162.257  167.966  162.257  167.966
 scf_post_calculation_gpw            15  6.9    0.005    0.007  150.229  150.234
 qs_scf_new_mos                     532  9.0    0.003    0.005  148.801  150.153
 qs_scf_loop_do_ot                  532 10.0    0.004    0.007  148.797  150.149
 multiply_cannon_loop             54596 14.7    3.827    4.202  125.648  146.004
 ot_scf_mini                        532 11.0    0.020    0.025  137.135  138.104
 fft_wrap_pw1pw2                  18343 14.2    0.354    0.415  120.984  136.068
 fft_wrap_pw1pw2_300              11605 15.7    4.570    5.072  112.395  127.865
 qs_vxc_create                      546 11.9    0.014    0.017  115.000  115.859
 xc_vxc_pw_create                   546 12.9    2.089    2.676  114.985  115.847
 ot_mini                           2856 10.3    0.029    0.036  111.433  112.631
 fft3d_ps                         18343 16.2   36.173   39.591   95.232  112.586
 mp_waitall_1                   6419368 16.8   66.378   94.001   66.378   94.001
 make_lumo_gpw                       15  7.9    0.002    0.003   91.378   91.382
 ot_eigensolver                      30  8.9    0.038    0.042   91.101   91.103
 xc_pw_derive                      6552 14.9    0.059    0.069   77.658   91.029
 multiply_cannon_multrec         873536 15.7   52.537   87.480   52.727   87.672
 qs_ot_get_derivative              2241 11.9    0.016    0.019   79.964   80.654
 multiply_cannon_metrocomm3      873536 15.7    2.100    2.345   47.983   80.393
 mp_alltoall_z22v                 18343 18.2   49.105   76.243   49.105   76.243
 xc_rho_set_and_dset_create         546 13.9    1.879    2.941   59.692   63.378
 xc_pw_divergence                  1092 13.9    0.026    0.032   51.384   61.941
 density_rs2pw                     1094 11.0    0.056    0.067   55.573   61.144
 potential_pw2rs                   1092 13.9    0.080    0.092   55.519   55.909
 qs_ot_get_p                       3503 10.6    0.020    0.024   49.761   52.467
 make_m2s                        109192 13.7    1.471    1.605   48.125   50.725
 yz_to_x                           6691 17.4    2.833    3.889   27.982   45.864
 write_available_results             15  7.9    0.002    0.003   45.329   45.364
 write_mo_free_results               15  8.9    1.803    1.857   44.776   44.813
 transfer_pw2rs                    4412 14.9    0.062    0.073   41.528   41.754
 make_images                     109192 14.7    2.862    3.124   39.126   41.279
 transfer_rs2pw                    4646 11.9    0.074    0.100   34.135   39.699
 mp_waitany                      109436 15.3   28.030   36.388   28.030   36.388
 x_to_yz                           7160 17.7    4.729    6.166   28.369   35.721
 transfer_pw2rs_300                1136 15.7   14.420   15.336   29.060   30.652
 qs_ot_p2m_diag                    2464 11.3    0.214    0.274   29.447   29.667
 init_scf_loop                       22  8.0    0.004    0.005   28.872   28.893
 apply_preconditioner_dbcsr        2356 12.9    0.006    0.007   26.052   28.641
 apply_single                      2356 13.9    0.007    0.007   26.047   28.635
 qs_ot_get_derivative_diag         1375 12.5    0.025    0.028   28.350   28.503
 mp_sum_l                        258549 13.8   17.018   28.142   17.018   28.142
 transfer_rs2pw_300                1184 12.9    8.782   11.875   22.525   27.782
 multiply_cannon_metrocomm4      818940 15.7    2.036    2.279    9.803   25.675
 mp_irecv_dv                    1760976 16.7    8.109   24.648    8.109   24.648
 qs_ot_get_derivative_taylor        866 13.5    0.019    0.022   24.000   24.568
 hirshfeld_integration               30  9.9   21.457   22.512   23.289   23.301
 cp_dbcsr_syevd                    2464 12.3    0.763    0.811   21.774   21.803
 ot_diis_step                       532 13.0    0.050    0.056   21.639   21.647
 mp_alltoall_d11v                 44499 15.0   16.367   21.311   16.367   21.311
 xc_functional_eval                 546 14.9    0.009    0.012   17.492   20.641
 pbe_lsd_eval                       546 15.9   17.483   20.631   17.483   20.631
 build_core_hamiltonian_matrix_      14  6.0    0.001    0.001   17.010   20.571
 mp_sum_d                         49286 14.1   13.386   20.309   13.386   20.309
 cp_fm_redistribute_end            2538 14.1   10.212   19.805   10.301   19.875
 cp_fm_diag_elpa                    449 14.3    0.004    0.006   19.392   19.493
 -------------------------------------------------------------------------------

 The number of warnings for this run is : 3
 
 -------------------------------------------------------------------------------
  **** **** ******  **  PROGRAM ENDED AT                 2025-06-16 15:59:03.337
 ***** ** ***  *** **   PROGRAM RAN ON                                 nid002288
 **    ****   ******    PROGRAM RAN BY                                    cahart
 ***** **    ** ** **   PROGRAM PROCESS ID                                249014
  **** **  *******  **  PROGRAM STOPPED IN /mnt/lustre/a2fs-work2/work/e05/e05/c
                                           ahart/postdoc2/work/group/tio2/anatas
                                           e/cell-441/geo-opt/mp-390/hole/from-n
                                           eutral/pbe-u-o/u-4.0
