     192
 i =        7, E =     -5778.1528606010
Ti        -0.0031858105        0.0316192662       -0.0058558879
Ti         1.8892305419        1.8914928449        4.8070578695
Ti         0.0010818175        1.8892585816        2.4067887179
Ti         1.8901624429        0.0038314405        7.2042761682
Ti         0.0009160265        3.7849758832       -0.0005871052
Ti         1.8937193210       13.2371281592        4.8067053764
Ti        11.3481004769        1.8895892388        2.4055871026
Ti         5.6697571567        0.0017170484        7.2147926273
Ti         1.8891741794        3.7789100799        7.2095844592
Ti         0.0025788633       13.2381103259        2.4265023086
Ti         5.6702439001        1.8889462853        4.8033867103
Ti        11.3413661108        0.0085198081       -0.0011929969
Ti         3.7897144320        0.0007554998        0.0001704229
Ti        13.2364541659        1.8917040546        4.8084548946
Ti        13.2359927861        0.0073890191        7.2051975350
Ti         3.7782679036        1.8897369224        2.4078394332
Ti         1.8888991877        5.6690798076        4.8110431020
Ti         0.0228745427       11.3237352395        0.0004402686
Ti         0.0015673993        5.6687386979        2.4003046201
Ti         1.8898978518       11.3472089356        7.2052972113
Ti         0.0029892322        7.5581024616        0.0026604891
Ti         1.8906104688        9.4598102426        4.8086846271
Ti         7.5697860563        1.8892075670        2.4086927078
Ti         9.4612872857        0.0030544432        7.2120837684
Ti         1.8895444129        7.5669889140        7.2066237478
Ti         0.0034891689        9.4609869151        2.4067262951
Ti         9.4615109284        1.8893032578        4.8063512772
Ti         7.5696710116        0.0017653607       -0.0039630591
Ti         3.7761247487        3.7805406989       -0.0009978273
Ti        13.2335766832       13.2405370931        4.8077069655
Ti        11.3497481933        5.6686460679        2.4014942763
Ti         5.6696566047       11.3495729601        7.2132373888
Ti        13.2368779580        3.7783056615        7.2089743641
Ti         3.7828043223       13.2375910561        2.4084238365
Ti         5.6691170432        5.6691426636        4.8074842222
Ti        11.3230044654       11.3527811574        0.0055312790
Ti        11.3434795372       13.2387167344        2.4106631248
Ti         5.6696489919        3.7769187585        7.2129425146
Ti         3.7878346710       11.3477003640        0.0015471405
Ti        13.2373870034        5.6677235365        4.8123183830
Ti         5.6709963567       13.2375230966        4.8027345908
Ti        11.3495082396        3.7772564454       -0.0003482747
Ti        13.2365366198       11.3483502917        7.1897360042
Ti         3.7768374057        5.6689041441        2.4019418018
Ti         3.7777289935        7.5681956688        0.0028309715
Ti        13.2374397575        9.4572443969        4.8095722665
Ti         7.5693446892        5.6686733614        2.4050391453
Ti         9.4615998711       11.3500798916        7.2083489991
Ti        13.2371905184        7.5639350170        7.2041402485
Ti         3.7789606048        9.4611011536        2.4044232779
Ti         9.4619255932        5.6682826343        4.8104497694
Ti         7.5628262023       11.3502210570       -0.0011059748
Ti        11.3476885729        9.4605442103        2.4091669407
Ti         5.6694405583        7.5692104614        7.2102217100
Ti         5.6694407270        9.4617594552        4.8050754058
Ti        11.3504323839        7.5590516047        0.0018134528
Ti         9.4616483161        3.7764385940        7.2105269874
Ti         7.5682621302       13.2379583378        2.4089298171
Ti         7.5707905789        3.7754853018       -0.0029723627
Ti         9.4591701754       13.2383016648        4.8055453451
Ti         7.5665974878        7.5700129157        0.0006682962
Ti         9.4597977589        9.4614847909        4.8079512439
Ti         7.5677610315        9.4615260819        2.4071454182
Ti         9.4611755580        7.5680163324        7.2059920004
O         0.0013192662       -0.0068493061        1.9777895722
O         1.8828232960        1.8873569241        6.7991384515
O         0.0013827434        1.8812794339        4.3947061849
O         1.8861696859       -0.0158110576        9.2089433510
O         1.8822724699        0.0011681732        5.2178545685
O         0.0018766641        1.8987530668        0.4174614526
O         1.8869436747        1.8798267411        2.8155737247
O         0.0023066982       -0.0066676632        7.6283192765
O         0.0002547855        3.7738561558        1.9838685991
O         1.8789745062       13.2365038631        6.8017478843
O        11.3517356283        1.8826093067        4.3934225886
O         5.6756507523       -0.0000435289        9.1997423700
O         1.8836970279        3.7759945192        5.2251473419
O        -0.0100169857       13.2361069617        0.3964312102
O         5.6720473326        1.8833659320        2.8162559866
O        11.3538602981       -0.0026669057        7.6286499361
O         3.7719091539       -0.0003091765        7.6337042849
O        13.2369892964        1.8791499955        2.8156460024
O        13.2351462601       -0.0177839505        9.2053416270
O         3.7752592168        1.8829925422        4.3914630939
O         1.8834830982        5.6724144862        6.7976465497
O        -0.0040199558       11.3584907012        1.9797505334
O        -0.0001758552        5.6717539413        0.4163532219
O         1.8813219290       11.3511617822        5.2195257921
O        -0.0003301565        7.5696338520        1.9871621595
O         1.8805704362        9.4627217320        6.7964183024
O         7.5670638744        1.8836213296        4.3941394978
O         9.4618041957       -0.0029312648        9.1977327757
O         1.8832012603        7.5671983756        5.2215162337
O        -0.0091478082        9.4528115280        0.4173283414
O         9.4632014090        1.8830268253        2.8200704886
O         7.5670186983       -0.0008269277        7.6264929524
O         3.7645611631        0.0012914631        1.9890630437
O        13.2396265528        1.8885790280        6.7979765093
O         0.0014832984        5.6564751787        4.3935965016
O         1.8955374600       11.3667822346        9.2019633987
O        13.2396075419        0.0020861554        5.2201092684
O         3.7626367041        1.8863734336        0.4108183039
O         1.8870175385        5.6560945559        2.8166718518
O        -0.0042270593       11.3595622865        7.6335973900
O        11.3581046328        1.8881330839        0.4139676729
O         5.6544141274        0.0011335920        5.2210277326
O         5.6542192103        1.8870062101        6.7982695650
O        11.3576817498       -0.0006947313        1.9868793361
O         1.8867414959        3.7659718451        9.2022442350
O         0.0015151488       13.2369720505        4.4053473989
O         0.0017173429        3.7674051164        7.6240406994
O         1.8878503947       13.2376028779        2.8126190658
O         3.7686242888        3.7744637141        1.9852299054
O        13.2408010451       13.2373155992        6.8038752906
O        11.3516519590        5.6569410946        4.3940717880
O         5.6727936699       11.3551435200        9.1991217206
O        13.2384444347        3.7756761702        5.2262527956
O         3.7594841890       13.2362608768        0.4117936095
O         5.6719047305        5.6562385696        2.8159825599
O        11.3589159822       11.3536894604        7.6358559422
O        11.3713494670       13.2379879649        0.4099240056
O         5.6555383037        3.7755551225        5.2238213585
O         3.7727945650       11.3551598545        7.6316734897
O        13.2371360781        5.6574791712        2.8164006874
O         5.6534307572       13.2366866632        6.7987581653
O        11.3553532087        3.7752507644        1.9849588264
O        13.2381984207       11.3684295732        9.2169497132
O         3.7752789468        5.6562855881        4.3911171877
O         5.6559233385        5.6722830790        6.7989927366
O        11.3608773401       11.3511335987        1.9876358489
O        13.2369991227        3.7670919274        9.2024026984
O         3.7765346240       13.2376947001        4.3897991930
O        11.3546679247        5.6696024530        0.4149515285
O         5.6549646802       11.3514133726        5.2212677040
O         3.7756380940        3.7677255715        7.6283740747
O        13.2364169353       13.2356061208        2.8109660818
O        13.2390889295       11.3513499949        5.2111168495
O         3.7686206610        5.6731372699        0.4133575308
O         5.6731900179       13.2376875037        2.8176899545
O        11.3514390308        3.7683933172        7.6248891640
O         3.7654592288       11.3521690702        1.9900456353
O        13.2382089783        5.6713600559        6.7972317541
O        11.3505735227       13.2364550791        4.3945592952
O         5.6716773123        3.7677479343        9.2037267823
O         3.7679398481        7.5673922200        1.9900447665
O        13.2384623607        9.4625859566        6.7988114127
O         7.5669411312        5.6566421372        4.3950256819
O         9.4530820784       11.3535811899        9.1951039530
O        13.2381602043        7.5661453293        5.2215213203
O         3.7654976797        9.4631505195        0.4151809765
O         9.4633056700        5.6573040485        2.8193449495
O         7.5683002311       11.3545074932        7.6270093670
O        11.3682260693        9.4642995181        0.4102840497
O         5.6558844080        7.5672995268        5.2201562508
O         5.6555456841        9.4633624987        6.7957647877
O        11.3548823265        7.5699547872        1.9862144780
O         9.4637560960        3.7690348706        9.1991519774
O         7.5668420094       13.2373660213        4.3925392114
O         7.5665765149        3.7694401000        7.6251031680
O         9.4615628530       13.2364682854        2.8201393469
O         7.5835045502        0.0014261497        1.9898964262
O         9.4707131278        1.8870827687        6.7980580106
O         0.0016555531        9.4726877611        4.3955847846
O         1.8872096113        7.5865583744        9.2021344932
O         9.4710916892        0.0011215920        5.2212855903
O         7.5829084855        1.8866119590        0.4135311951
O         1.8874947332        9.4738264536        2.8154999833
O         0.0009151349        7.5865255453        7.6249835397
O         7.5824633896        3.7759214310        1.9861034726
O         9.4742004573       13.2367863845        6.7996183135
O        11.3516768174        9.4714918947        4.3966067424
O         5.6712392875        7.5834845824        9.2018526094
O         9.4699035109        3.7754646095        5.2241546232
O         7.5844383153       13.2367342459        0.4129214040
O         5.6718481868        9.4702957501        2.8168399502
O        11.3514843444        7.5869134553        7.6259378943
O         3.7752846366        7.5841632914        7.6286258826
O        13.2372938187        9.4750141295        2.8135149831
O        13.2374485703        7.5909836136        9.2026041244
O         3.7753087778        9.4706097345        4.3903472460
O         9.4700568762        5.6721561343        6.7990372428
O         7.5842259081       11.3511867864        1.9907745898
O         7.5835316549        5.6723907957        0.4115027730
O         9.4721168250       11.3514942398        5.2199512353
O         7.5838522835        7.5668756788        1.9901886903
O         9.4730259756        9.4634440362        6.7968786331
O         7.5666347946        9.4700394535        4.3940752950
O         9.4638208529        7.5877822939        9.2008639745
O         9.4704478977        7.5672981147        5.2196782338
O         7.5850169623        9.4636379896        0.4156882042
O         9.4630176204        9.4707709004        2.8185802443
O         7.5677720702        7.5833122817        7.6258099573
     192
 i =        8, E =     -5778.1392498117
Ti        -0.0060654398        0.1676425340       -0.0447590882
Ti         1.8940890812        1.8995952737        4.8066307583
Ti         0.0040719772        1.8957944083        2.4208294645
Ti         1.9005012993        0.0075398867        7.1893494228
Ti         0.0029657272        3.8166726979       -0.0082722324
Ti         1.9156074005       13.2374744655        4.8139833654
Ti        11.3442863053        1.8955735832        2.4085878588
Ti         5.6742386143        0.0056462475        7.2118104726
Ti         1.8919680060        3.7810021352        7.2085567495
Ti         0.0034701000       13.2404815575        2.5252555603
Ti         5.6724087885        1.8915647414        4.8033498182
Ti        11.3246723059        0.0193748195        0.0009966248
Ti         3.8123049979        0.0025416359        0.0079976704
Ti        13.2321164874        1.9027026710        4.8060318584
Ti        13.2241026067        0.0191015615        7.1886281139
Ti         3.7811298323        1.8942731374        2.4088453977
Ti         1.8912065250        5.6687583255        4.8100611458
Ti         0.1005659816       11.1995177991       -0.0126735094
Ti         0.0029422949        5.6684057894        2.4100797792
Ti         1.9035200165       11.3448321287        7.1896202213
Ti         0.0040269831        7.5223068836       -0.0056626857
Ti         1.8973384409        9.4513304580        4.8090860482
Ti         7.5676615190        1.8913074355        2.4094732592
Ti         9.4555154179        0.0069537979        7.2080689251
Ti         1.8938796737        7.5625455190        7.2055180623
Ti         0.0047934370        9.4507890022        2.4229906902
Ti         9.4575796081        1.8927997887        4.8061047115
Ti         7.5690343093        0.0052269135       -0.0028192883
Ti         3.7782235723        3.7828704387       -0.0019166457
Ti        13.2156490369       13.2505479082        4.8098877837
Ti        11.3468888704        5.6671744692        2.4030331612
Ti         5.6730698099       11.3487481975        7.2053984998
Ti        13.2336992969        3.7817535763        7.2096044182
Ti         3.7982558847       13.2367969952        2.4102567728
Ti         5.6703116211        5.6690453220        4.8074994960
Ti        11.2264827930       11.3547901538        0.0339533920
Ti        11.3277730609       13.2458368646        2.4225368049
Ti         5.6710358017        3.7777775575        7.2128369216
Ti         3.8159443994       11.3467778514        0.0079786501
Ti        13.2354410822        5.6643402994        4.8094440570
Ti         5.6772646628       13.2376996070        4.8062560729
Ti        11.3466963364        3.7792537845       -0.0010007650
Ti        13.2299944300       11.3472114161        7.1223356556
Ti         3.7796054753        5.6693316770        2.4027813445
Ti         3.7805194494        7.5650194411        0.0025792650
Ti        13.2340790087        9.4386622936        4.8050916422
Ti         7.5682874084        5.6681945873        2.4049516853
Ti         9.4544306478       11.3477717505        7.1984487599
Ti        13.2354867020        7.5535180722        7.2033883701
Ti         3.7830413143        9.4558318667        2.4055921801
Ti         9.4593987486        5.6677944542        4.8100682241
Ti         7.5422702925       11.3489572170        0.0032286146
Ti        11.3452644204        9.4525028235        2.4166989791
Ti         5.6707508939        7.5661704933        7.2098313114
Ti         5.6712735710        9.4585800193        4.8062990241
Ti        11.3495235823        7.5458699178       -0.0022281323
Ti         9.4590222971        3.7784705674        7.2102402915
Ti         7.5659231602       13.2387725428        2.4079543734
Ti         7.5692062571        3.7767365801       -0.0030943411
Ti         9.4480707099       13.2399297355        4.8084113770
Ti         7.5653381599        7.5677880756        0.0009221075
Ti         9.4535192385        9.4567853227        4.8081762430
Ti         7.5669087113        9.4584194700        2.4077931478
Ti         9.4577297598        7.5656267459        7.2062429762
O         0.0024862010       -0.0401976591        1.9216010563
O         1.8781890395        1.8785631109        6.8014316554
O         0.0007933147        1.8795281134        4.3951762901
O         1.8651915256       -0.0695229496        9.2328883305
O         1.8817198857       -0.0017830148        5.2200579375
O        -0.0054193692        1.9359580621        0.4273028115
O         1.8815178238        1.8749141995        2.8155001472
O        -0.0009776371        0.0013842691        7.6240363570
O        -0.0004155019        3.7701635863        1.9843504586
O         1.8756374811       13.2350425971        6.8043721723
O        11.3543596338        1.8822955826        4.3915572647
O         5.6755217850       -0.0049246509        9.2023720676
O         1.8820912260        3.7746947112        5.2256304709
O        -0.0518345641       13.2230370376        0.3165509063
O         5.6685168520        1.8809121106        2.8158681512
O        11.3595123949        0.0049585749        7.6367011719
O         3.7649206215        0.0016896479        7.6451554029
O        13.2421141491        1.8713578550        2.8127362533
O        13.2496210687       -0.0629488879        9.2232239177
O         3.7724171239        1.8832240338        4.3881218339
O         1.8814452981        5.6725443797        6.7991314115
O         0.0033010561       11.3882381290        1.9363408945
O        -0.0007917210        5.6729663839        0.4241371883
O         1.8804608208       11.3534685950        5.2192616346
O         0.0034336209        7.5764785161        1.9852964904
O         1.8748633890        9.4717277045        6.8006122602
O         7.5675701434        1.8825322443        4.3938469148
O         9.4675285132       -0.0057736779        9.2004592181
O         1.8827299201        7.5698723161        5.2224899881
O        -0.0118612131        9.4196446706        0.4205187268
O         9.4661850718        1.8808116860        2.8189499863
O         7.5691222991       -0.0011646289        7.6252716523
O         3.7709333948       -0.0025308986        1.9896270573
O        13.2415154372        1.8819836672        6.8015708394
O         0.0008220254        5.6577074967        4.3941871408
O         1.9041833992       11.3889375127        9.2099021722
O        13.2390250080        0.0014170509        5.2196912786
O         3.7599533944        1.8775844491        0.4056511780
O         1.8848634742        5.6572841012        2.8158446502
O        -0.0208612714       11.3539985083        7.6566008595
O        11.3625786265        1.8798770139        0.4097532030
O         5.6538737703       -0.0005223740        5.2220746276
O         5.6533209619        1.8840798395        6.7978282935
O        11.3520524829       -0.0050917186        1.9820095600
O         1.8840215725        3.7723653567        9.2017107056
O         0.0002446734       13.2380061778        4.4374077481
O         0.0007730795        3.7699370239        7.6233313103
O         1.8773068058       13.2341127085        2.8022922235
O         3.7670134343        3.7727383385        1.9845901984
O        13.2383747049       13.2340020640        6.8125752459
O        11.3537696126        5.6577902534        4.3926136336
O         5.6701336342       11.3565488597        9.1953877595
O        13.2388651076        3.7743784350        5.2274205907
O         3.7683906432       13.2370603171        0.4114780179
O         5.6708129041        5.6578725973        2.8161128341
O        11.3826354076       11.3502516198        7.6774644589
O        11.3944365732       13.2279387677        0.3982296889
O         5.6555911178        3.7743482971        5.2247459595
O         3.7683878786       11.3504025311        7.6364774729
O        13.2370518398        5.6597701394        2.8153045890
O         5.6505505513       13.2373080628        6.8001549719
O        11.3561167552        3.7731831707        1.9853965151
O        13.2571070504       11.4304306459        9.2824067021
O         3.7730125681        5.6577979476        4.3908073737
O         5.6550555043        5.6719474113        6.7990100222
O        11.3509108172       11.3563853499        1.9901497749
O        13.2389109131        3.7682955638        9.2019774194
O         3.7773624453       13.2361091858        4.3854419491
O        11.3592533649        5.6706373708        0.4117332809
O         5.6540417139       11.3528274748        5.2207753448
O         3.7729494669        3.7711356403        7.6287221079
O        13.2408770456       13.2396282772        2.7993392960
O        13.2391447664       11.3538168811        5.1946345789
O         3.7649992037        5.6727847664        0.4112488969
O         5.6731514837       13.2367326228        2.8167073400
O        11.3536717407        3.7680576593        7.6265453130
O         3.7688374195       11.3543691410        1.9898171248
O        13.2392412824        5.6715754022        6.7985557205
O        11.3502534723       13.2377190808        4.3919693464
O         5.6689273062        3.7674290968        9.2052899999
O         3.7670870223        7.5705657245        1.9897634117
O        13.2425571529        9.4740053239        6.8061714339
O         7.5677931943        5.6575938887        4.3938044777
O         9.4303481427       11.3600904156        9.1897967725
O        13.2396311668        7.5659229971        5.2246259474
O         3.7640275567        9.4705294196        0.4127154825
O         9.4657457160        5.6584683052        2.8192882879
O         7.5708915026       11.3550358094        7.6251995652
O        11.3974585872        9.4835646796        0.3920796173
O         5.6552677134        7.5694643636        5.2208947729
O         5.6543305113        9.4660526042        6.7970120595
O        11.3540937617        7.5771023829        1.9804962289
O         9.4658432226        3.7658514425        9.2003755713
O         7.5677014022       13.2369764758        4.3917374127
O         7.5671774027        3.7677106742        7.6248510335
O         9.4656152383       13.2354653486        2.8176966624
O         7.5836113869       -0.0005963294        1.9886237903
O         9.4732411258        1.8838769754        6.7988888058
O         0.0002726963        9.4748787249        4.3962040338
O         1.8813801193        7.5874982253        9.2037170084
O         9.4719667830       -0.0010033858        5.2223078119
O         7.5856068046        1.8843100156        0.4127941244
O         1.8785460427        9.4820728015        2.8117325285
O        -0.0000073371        7.5836969679        7.6235653347
O         7.5833675948        3.7745256360        1.9864146545
O         9.4807553208       13.2330026184        6.8017939653
O        11.3551207245        9.4719743065        4.3923536405
O         5.6702906726        7.5867875184        9.2042242729
O         9.4710905451        3.7746348374        5.2243872004
O         7.5833440519       13.2354912770        0.4134891785
O         5.6704101665        9.4727984162        2.8152485648
O        11.3552244902        7.5820935732        7.6261403999
O         3.7726112341        7.5848810910        7.6285230802
O        13.2401284971        9.4808503930        2.8122687479
O        13.2376709651        7.5824393826        9.2029475122
O         3.7722999849        9.4713249762        4.3892952845
O         9.4722741416        5.6741268712        6.7993106432
O         7.5820025602       11.3526905935        1.9900656392
O         7.5835974426        5.6733370572        0.4096403018
O         9.4735942576       11.3528688100        5.2205634640
O         7.5811198115        7.5692407736        1.9899948835
O         9.4765097471        9.4685870001        6.7969251297
O         7.5676233815        9.4716692067        4.3941335012
O         9.4710075123        7.5910328108        9.2058247341
O         9.4704188927        7.5700472618        5.2229395717
O         7.5801879489        9.4667645158        0.4154860169
O         9.4708603611        9.4749531516        2.8164407343
O         7.5695803642        7.5847477740        7.6253802663
     192
 i =        9, E =     -5778.1625961211
Ti        -0.0057761036        0.0909990724       -0.0250121757
Ti         1.8912116778        1.8941909829        4.8073704819
Ti         0.0018988038        1.8932597990        2.4133264938
Ti         1.8943617575        0.0035189579        7.1990076070
Ti         0.0015265991        3.7994888231       -0.0029377411
Ti         1.9032626488       13.2370050064        4.8118022196
Ti        11.3465775873        1.8914151195        2.4061969880
Ti         5.6715530883        0.0033915235        7.2139181454
Ti         1.8903665091        3.7799118404        7.2091095417
Ti         0.0013479706       13.2376784289        2.4640575159
Ti         5.6710052846        1.8901259558        4.8032684702
Ti        11.3385460040        0.0091966618        0.0003305758
Ti         3.7948722856        0.0002843243        0.0039900304
Ti        13.2343544876        1.8955108369        4.8076806085
Ti        13.2307985807        0.0078003972        7.1987778132
Ti         3.7792659668        1.8911193370        2.4081791345
Ti         1.8902414649        5.6692630782        4.8108987325
Ti         0.0426607738       11.2686681137       -0.0081984632
Ti         0.0022647183        5.6689144579        2.4074653439
Ti         1.8977582813       11.3473695852        7.1993921904
Ti         0.0033366453        7.5452968427       -0.0000432907
Ti         1.8927549225        9.4570205201        4.8089499785
Ti         7.5691803345        1.8900194595        2.4086319249
Ti         9.4596358135        0.0045887133        7.2108834732
Ti         1.8908784944        7.5660614441        7.2062531272
Ti         0.0032054231        9.4549733705        2.4140326796
Ti         9.4600467981        1.8906073702        4.8062339429
Ti         7.5700070577        0.0030052881       -0.0033917836
Ti         3.7768888569        3.7814719209       -0.0015453468
Ti        13.2244356448       13.2438169146        4.8100684143
Ti        11.3484907442        5.6685624998        2.4017278942
Ti         5.6709094902       11.3490384880        7.2088096035
Ti        13.2352375285        3.7793682012        7.2094353879
Ti         3.7872226770       13.2372216233        2.4085172676
Ti         5.6697889222        5.6691478017        4.8074930377
Ti        11.2941107441       11.3552760474        0.0176739491
Ti        11.3405258875       13.2410017847        2.4141359459
Ti         5.6701895712        3.7774964732        7.2128775976
Ti         3.7933156660       11.3477573068        0.0030415873
Ti        13.2358393866        5.6668073972        4.8112469372
Ti         5.6738627472       13.2378942587        4.8044140296
Ti        11.3484185948        3.7779834035       -0.0004894276
Ti        13.2342298332       11.3497443069        7.1742863259
Ti         3.7780440134        5.6692429760        2.4021956371
Ti         3.7787403645        7.5674855067        0.0025906788
Ti        13.2357291672        9.4511570374        4.8071712393
Ti         7.5689722330        5.6687669974        2.4049337391
Ti         9.4571408378       11.3494312064        7.2050142968
Ti        13.2360766964        7.5628315191        7.2041560118
Ti         3.7802076106        9.4596266200        2.4047879658
Ti         9.4608466847        5.6684725300        4.8104539394
Ti         7.5569153275       11.3498569939       -0.0006122417
Ti        11.3482101002        9.4583361298        2.4115824355
Ti         5.6701283518        7.5682471401        7.2102088229
Ti         5.6702427696        9.4601895765        4.8052336298
Ti        11.3509842597        7.5574934172        0.0001857260
Ti         9.4606092821        3.7773076605        7.2105830484
Ti         7.5681689087       13.2381703593        2.4078187496
Ti         7.5702309515        3.7760954690       -0.0028705418
Ti         9.4550273784       13.2387274456        4.8069958919
Ti         7.5664215152        7.5695446934        0.0010266546
Ti         9.4581206637        9.4598705610        4.8075944569
Ti         7.5676322453        9.4604657812        2.4072209247
Ti         9.4603498536        7.5677023401        7.2061598669
O         0.0038062193       -0.0198297851        1.9547110647
O         1.8839574639        1.8842261361        6.8002449459
O         0.0012928256        1.8827297272        4.3939990650
O         1.8743778471       -0.0363269519        9.2176183916
O         1.8851395885       -0.0000846258        5.2203126548
O         0.0007801395        1.9142589443        0.4188106218
O         1.8846029004        1.8803632413        2.8165606000
O         0.0013970455        0.0078323112        7.6237703613
O         0.0009164909        3.7742922473        1.9866424471
O         1.8834134200       13.2356957938        6.7999424073
O        11.3527653486        1.8846005873        4.3922331530
O         5.6740895836       -0.0002676606        9.2023914613
O         1.8842677076        3.7752158785        5.2249012183
O        -0.0239186643       13.2294285907        0.3487860745
O         5.6707842639        1.8841627303        2.8161709975
O        11.3556326484        0.0039482721        7.6311282659
O         3.7697401843        0.0028534036        7.6387674338
O        13.2388647244        1.8794743889        2.8159551397
O        13.2432615303       -0.0293877412        9.2102890031
O         3.7739909973        1.8845771526        4.3900612072
O         1.8840048888        5.6727614114        6.7983104866
O         0.0062311553       11.3687955299        1.9621088084