     192
 i =        7, E =     -5778.1528606010
Ti         0.0021936869        0.0276128792       -0.0069182527
Ti         0.0013969613        0.0018114789       -0.0003128687
Ti         0.0008497547        0.0063168254        0.0027829564
Ti         0.0029495650        0.0010922659       -0.0019005555
Ti         0.0007505230        0.0023424899       -0.0010635504
Ti         0.0039740272        0.0002695005        0.0028496771
Ti        -0.0011779009        0.0017438592        0.0003349874
Ti         0.0009694753        0.0010726343       -0.0006362708
Ti         0.0011311885        0.0004840935        0.0008217119
Ti         0.0002130431        0.0004686647        0.0271371338
Ti         0.0004350253        0.0007976598        0.0001754179
Ti        -0.0042878585        0.0025701556        0.0004423343
Ti         0.0030288553        0.0018361861        0.0008622762
Ti        -0.0010595294        0.0023370367       -0.0008697401
Ti        -0.0022155081        0.0022492561       -0.0034681132
Ti         0.0010153573        0.0011349959       -0.0012796949
Ti         0.0007387114       -0.0002105321       -0.0004743280
Ti         0.0107158732       -0.0218654279       -0.0027138774
Ti         0.0003543704       -0.0002703169        0.0016912865
Ti         0.0051456768       -0.0003480175       -0.0034638168
Ti         0.0000003751       -0.0027189208       -0.0010056529
Ti         0.0016304295       -0.0020496267        0.0000190118
Ti        -0.0005432451        0.0008704625       -0.0005608536
Ti        -0.0019139627        0.0010655825       -0.0005543616
Ti         0.0009918065       -0.0012249870        0.0005292726
Ti         0.0000157327       -0.0067733901        0.0029781584
Ti        -0.0010202689        0.0008960276        0.0000152001
Ti        -0.0003490303        0.0010816501        0.0003635691
Ti         0.0014234441       -0.0006955099       -0.0000779156
Ti        -0.0030715740        0.0015057823        0.0009759381
Ti        -0.0008693630       -0.0003019909        0.0003690473
Ti         0.0008804618       -0.0002689682       -0.0014259940
Ti        -0.0007357738        0.0010473773        0.0009107484
Ti         0.0033917383        0.0003948473       -0.0011967971
Ti         0.0004373888       -0.0002297174       -0.0000176896
Ti        -0.0180536260       -0.0020231220        0.0046152218
Ti        -0.0031827379        0.0008082807        0.0016170193
Ti         0.0003213514        0.0002691848        0.0010679319
Ti         0.0038118549       -0.0001131379        0.0009121018
Ti        -0.0006213720       -0.0004547047       -0.0009916197
Ti         0.0010865695        0.0001179126        0.0011732001
Ti        -0.0009673359        0.0006946557       -0.0002588406
Ti        -0.0017634484       -0.0004860297       -0.0171821892
Ti         0.0008952756       -0.0003603191       -0.0001360089
Ti         0.0008206382       -0.0008687330       -0.0000768622
Ti        -0.0010641529       -0.0035855158       -0.0018819472
Ti        -0.0001690782       -0.0000944779       -0.0010023636
Ti        -0.0044814090       -0.0007386054       -0.0019527349
Ti        -0.0009454563       -0.0021089667        0.0013395903
Ti         0.0013391186       -0.0013722095       -0.0003754901
Ti        -0.0007866719       -0.0000951006       -0.0001764441
Ti        -0.0012614008       -0.0005822544        0.0007175718
Ti        -0.0008625350       -0.0024992244        0.0000977846
Ti         0.0005545491       -0.0008330804        0.0002339572
Ti         0.0005584915       -0.0009138609        0.0004531922
Ti        -0.0013493882       -0.0009781541       -0.0004576105
Ti        -0.0009472336        0.0006511777        0.0005524096
Ti        -0.0005729805        0.0001868818       -0.0010133724
Ti        -0.0010027629        0.0010206744       -0.0000155071
Ti        -0.0022331318        0.0003262216        0.0010499843
Ti         0.0008371107       -0.0013122940        0.0000489027
Ti        -0.0013838211       -0.0013288896        0.0002762498
Ti        -0.0000457484       -0.0011739217       -0.0007513551
Ti        -0.0008508933       -0.0006897136        0.0012507942
O        -0.0000315784       -0.0056856733       -0.0034634737
O        -0.0000724171       -0.0023297667       -0.0002920813
O        -0.0002939950        0.0003543691       -0.0014431608
O        -0.0085376802       -0.0016240963        0.0020325461
O         0.0003017259       -0.0016280554        0.0016950418
O        -0.0007383902       -0.0103341562       -0.0022734800
O        -0.0023500673        0.0003416302        0.0007402511
O        -0.0012514303        0.0015776239        0.0025884855
O         0.0000013511       -0.0009290815        0.0014139083
O         0.0005790213       -0.0008329409       -0.0019915320
O         0.0012492999        0.0002721847       -0.0002245673
O        -0.0016444908       -0.0002728400        0.0010326895
O         0.0000383945       -0.0008697649       -0.0004087830
O        -0.0015733846       -0.0060505319       -0.0107824370
O        -0.0004986594        0.0000149943        0.0002174526
O         0.0018808122        0.0010435593       -0.0000807275
O        -0.0012691846        0.0002839656       -0.0003197090
O         0.0015553172        0.0002235654        0.0005441909
O         0.0070291647       -0.0006994730        0.0024830129
O        -0.0011263828        0.0002711635       -0.0001483065
O         0.0000340615        0.0002907704        0.0003594271
O         0.0011836065        0.0051450175       -0.0041467663
O         0.0000680667        0.0004291572       -0.0011989764
O         0.0004189764        0.0013982058        0.0014700916
O         0.0004195741        0.0017259469        0.0014077406
O         0.0001920156        0.0028326495        0.0000115951
O         0.0003284934        0.0000790153        0.0002424165
O         0.0027479076        0.0003179999        0.0006632490
O         0.0001909756        0.0013046312       -0.0003662892
O         0.0012102181        0.0104247516       -0.0025448220
O         0.0011411815        0.0000865950        0.0000642262
O         0.0005575786        0.0001813705       -0.0010302620
O         0.0011996163       -0.0013579258        0.0002261050
O        -0.0001179617       -0.0033054657        0.0005647844
O        -0.0001523315       -0.0000386307       -0.0004656519
O        -0.0108835667       -0.0002018822        0.0030972953
O        -0.0002935101       -0.0024004828        0.0012993163
O         0.0008374770       -0.0018117282        0.0003529450
O        -0.0009463210        0.0000352996        0.0003337363
O        -0.0020942241       -0.0011655894        0.0038314654
O        -0.0002938038       -0.0028870038       -0.0005874252
O         0.0001349821       -0.0006418165        0.0003515622
O         0.0001576710       -0.0010904752       -0.0004061283
O        -0.0009652283       -0.0012136494       -0.0000000805
O        -0.0013897839        0.0010134343       -0.0005044428
O        -0.0007959877        0.0002100959       -0.0086021030
O        -0.0003454858        0.0005017550        0.0005357972
O        -0.0067813946       -0.0002137002       -0.0013979428
O         0.0000433216       -0.0000920615        0.0007116545
O        -0.0006023579       -0.0029917651       -0.0007029626
O         0.0008448851       -0.0001152407       -0.0002591407
O        -0.0011316303       -0.0000952992        0.0011493141
O        -0.0000585562       -0.0009615381       -0.0006341806
O         0.0021444698       -0.0004047477        0.0009164056
O        -0.0004954634        0.0000932240        0.0002652106
O         0.0038346341       -0.0002128827        0.0019418816
O        -0.0008260671       -0.0040792394       -0.0010527293
O         0.0000604615       -0.0003576723       -0.0001440642
O        -0.0015174125       -0.0005633129       -0.0008614136
O         0.0003199361       -0.0001082202        0.0005917936
O         0.0001070796       -0.0003120901       -0.0006135060
O        -0.0001745392       -0.0007284993        0.0008044493
O         0.0090125790        0.0025456851        0.0079465028
O        -0.0007237521        0.0000619710        0.0000066554
O        -0.0000499540        0.0002872904       -0.0002378454
O        -0.0017169122        0.0016911913       -0.0014199357
O         0.0006555268        0.0004456830       -0.0006447778
O        -0.0025663152       -0.0000928917        0.0000614782
O         0.0002167547        0.0008174801       -0.0008203971
O         0.0000455099        0.0005355624        0.0003589556
O        -0.0010104157        0.0005572820       -0.0004353081
O         0.0051883655        0.0006335900       -0.0005748330
O        -0.0001707847        0.0016782207        0.0064696483
O        -0.0001062089        0.0002675631       -0.0002665501
O        -0.0012982602       -0.0000392495       -0.0007312812
O         0.0010106234        0.0001473178       -0.0000638780
O         0.0008510728        0.0006074577       -0.0001662254
O         0.0000262626        0.0006177721        0.0006654023
O         0.0029703019        0.0003044638       -0.0009722607
O        -0.0004152691        0.0002788731       -0.0003986541
O         0.0002039571        0.0010059162        0.0005323290
O         0.0002102220        0.0052090033        0.0005643377
O         0.0002380733       -0.0000176828        0.0001100375
O         0.0072420272        0.0005098125        0.0018181279
O         0.0000666324        0.0019135541       -0.0003523509
O         0.0005203883        0.0018212420        0.0001448978
O         0.0008613375       -0.0001138413        0.0003851970
O         0.0005378197       -0.0000633029       -0.0014149476
O         0.0000625118        0.0060265698       -0.0010210541
O        -0.0000262687        0.0007400670       -0.0000463599
O        -0.0000341956        0.0009562202       -0.0003025553
O        -0.0002169686        0.0011893953        0.0007878115
O         0.0008578374       -0.0001364202       -0.0001653146
O         0.0005858874        0.0000497115        0.0007527304
O         0.0004448514       -0.0000850967       -0.0005732847
O         0.0028754141        0.0001315884       -0.0005826160
O        -0.0000611804       -0.0007330220       -0.0000226977
O        -0.0000588858       -0.0011951525       -0.0000745776
O        -0.0005824202       -0.0003591357       -0.0015348735
O        -0.0014892994       -0.0004729054       -0.0002594151
O        -0.0002289039       -0.0008333171        0.0002708726
O         0.0002026717       -0.0009336956        0.0001896659
O        -0.0027445930       -0.0000925708        0.0000472266
O        -0.0000445253       -0.0007270572        0.0002638743
O         0.0001045857       -0.0005774612        0.0005361787
O        -0.0002642538       -0.0010786596       -0.0006215281
O         0.0016830248       -0.0003213611       -0.0010653198
O        -0.0005198055        0.0001223512        0.0001782237
O        -0.0000618633       -0.0004535517       -0.0002310230
O        -0.0002895078       -0.0005396939        0.0006859943
O        -0.0006431159       -0.0000252888       -0.0003277670
O         0.0013397599       -0.0009524139       -0.0003965448
O        -0.0009038088       -0.0001623282       -0.0004139836
O         0.0014002005       -0.0004383742        0.0016773647
O         0.0005911003       -0.0018174738       -0.0008395989
O        -0.0012960920       -0.0002023728        0.0002148083
O        -0.0000094092        0.0001653808       -0.0001784132
O        -0.0003620454        0.0006442772       -0.0003660142
O        -0.0001399238        0.0001869615        0.0003463636
O        -0.0003404277        0.0006977529        0.0010504846
O        -0.0003928084        0.0008946089        0.0004838265
O        -0.0003504514        0.0018787957       -0.0006433603
O         0.0004486239       -0.0000530849        0.0004498291
O         0.0011825795       -0.0005244791       -0.0003266958
O        -0.0002324405        0.0009188583        0.0000385955
O        -0.0007080346        0.0012040457        0.0004348917
O         0.0016084230        0.0000304682        0.0002538365
O         0.0000652632        0.0000056177       -0.0007317233
     192
 i =        8, E =     -5778.1392498117
Ti        -0.0014869871       -0.0293810071        0.0003301334
Ti        -0.0020738193       -0.0045948657        0.0005057750
Ti        -0.0015324055       -0.0091600377        0.0006709580
Ti        -0.0073589036       -0.0085696288        0.0142944713
Ti        -0.0012131182       -0.0024906671       -0.0002197015
Ti        -0.0015397143       -0.0012076093        0.0024412750
Ti         0.0035779994       -0.0075081875       -0.0036515869
Ti        -0.0039643141       -0.0021118656        0.0017295044
Ti        -0.0013149978       -0.0033241208        0.0012657780
Ti        -0.0062621876       -0.0037682094       -0.0214354746
Ti        -0.0014846620       -0.0020350854       -0.0002212692
Ti         0.0160562492       -0.0186911509        0.0008648497
Ti        -0.0179352934       -0.0048997734       -0.0020638970
Ti         0.0005658255       -0.0052382770       -0.0003501685
Ti         0.0041867743       -0.0151072699        0.0130263395
Ti        -0.0032728409       -0.0050910815       -0.0040801724
Ti        -0.0013224393        0.0010671093        0.0001236449
Ti        -0.0522512984        0.0259654137       -0.0063245530
Ti        -0.0012136928        0.0023421544        0.0028316799
Ti        -0.0135079480        0.0062010557        0.0072206874
Ti        -0.0045161410        0.0131251057       -0.0002971893
Ti        -0.0044509308        0.0045777302        0.0000161730
Ti         0.0013565627       -0.0024053341       -0.0015929115
Ti         0.0070046761       -0.0042453170        0.0029058635
Ti        -0.0039830574        0.0054121699        0.0023380049
Ti        -0.0057888813        0.0100532673       -0.0046997716
Ti         0.0027880772       -0.0028881810        0.0000590891
Ti         0.0036391449       -0.0027497451        0.0001037571
Ti        -0.0013521516       -0.0048923957        0.0006029992
Ti        -0.0026235617       -0.0013389220        0.0031954411
Ti         0.0017029187        0.0036950001       -0.0021081305
Ti        -0.0022235221        0.0011644024       -0.0004370094
Ti        -0.0000525559       -0.0029777636        0.0018816578
Ti        -0.0090586787        0.0000487114       -0.0060787195
Ti        -0.0004046062        0.0003439269        0.0000428535
Ti         0.0500685818        0.0037927973       -0.0062582989
Ti         0.0121586500       -0.0055651399       -0.0158142519
Ti        -0.0010818486       -0.0012400191        0.0016821908
Ti        -0.0130418497        0.0053148788       -0.0005283349
Ti        -0.0004547223        0.0020152355       -0.0000899957
Ti        -0.0013687826       -0.0002202468        0.0007082258
Ti         0.0021330124       -0.0035356153        0.0006429469
Ti         0.0026509986        0.0065363858        0.0450081073
Ti        -0.0017390310        0.0001795115       -0.0011886833
Ti        -0.0035857688        0.0043113855       -0.0002468783
Ti         0.0000230213        0.0045824710        0.0009415518
Ti         0.0014479593        0.0009928616       -0.0017781160
Ti         0.0132290400        0.0012786302        0.0026257986
Ti        -0.0007608124        0.0114132572        0.0047380745
Ti        -0.0047112098        0.0046743146       -0.0022715380
Ti         0.0019726568        0.0014986275        0.0003217040
Ti         0.0045701526        0.0011657362       -0.0004092163
Ti         0.0072468874        0.0090213115       -0.0140484711
Ti        -0.0004407305        0.0023734033        0.0013670993
Ti        -0.0009889023        0.0017346235       -0.0002049286
Ti         0.0038915329        0.0183627376        0.0020119725
Ti         0.0022455694       -0.0011843628        0.0012341411
Ti         0.0034328833       -0.0008176055       -0.0028478430
Ti         0.0005984165       -0.0005540119        0.0002017552
Ti         0.0050869255       -0.0016115195        0.0010220956
Ti         0.0045759727        0.0022633593       -0.0003174617
Ti         0.0051556118        0.0028054416       -0.0003258951
Ti         0.0036797929        0.0020633505       -0.0016061762
Ti         0.0049641006        0.0043161980        0.0034971933
O         0.0010064807        0.0120990189        0.0087269811
O         0.0020414557        0.0090395310       -0.0022385902
O         0.0010495572        0.0016469701       -0.0006810733
O         0.0082406080        0.0048299271       -0.0083739553
O         0.0019798408        0.0032478784       -0.0018830674
O         0.0011834470        0.0076816245       -0.0023138940
O         0.0030697152        0.0021369880        0.0016753591
O         0.0022598638        0.0068518598       -0.0063026780
O         0.0005905587        0.0056372424        0.0029082811
O         0.0039651047        0.0007374132       -0.0069027345
O        -0.0022659683        0.0014197217        0.0008630192
O         0.0041470455        0.0012457143       -0.0007369714
O         0.0008465949        0.0015239594       -0.0004781387
O         0.0047701770        0.0033091429       -0.0013607498
O         0.0018580581        0.0012437070        0.0009123433
O        -0.0069411581        0.0020953764       -0.0037742360
O         0.0073648455        0.0013552111       -0.0016547337
O        -0.0019003698        0.0028532945        0.0026817698
O        -0.0050701427        0.0077817733       -0.0080710595
O         0.0021721569        0.0010248555        0.0009947300
O         0.0009562988       -0.0009444163       -0.0009227548
O         0.0044558430       -0.0098346174        0.0115537259
O         0.0005134383       -0.0033870337       -0.0004569984
O         0.0022570688       -0.0018036127       -0.0012478952
O         0.0000543513       -0.0089931754        0.0041692234
O         0.0029393044       -0.0078896079       -0.0028149632
O        -0.0009439915        0.0007950963        0.0002503012
O        -0.0089440483        0.0016386680       -0.0015343959
O         0.0009872136       -0.0026077008       -0.0007934329
O         0.0058742422       -0.0138595164        0.0022942778
O        -0.0034738049        0.0013962117        0.0010956368
O        -0.0017736261        0.0009779107       -0.0008058668
O         0.0016701855        0.0036523648        0.0030943608
O        -0.0011264926        0.0093340186       -0.0025642035
O         0.0011159392       -0.0005342894       -0.0001885467
O         0.0132195105       -0.0018728291       -0.0036269263
O        -0.0010331823        0.0044012848       -0.0022802287
O         0.0020320442        0.0077661854        0.0028504494
O         0.0022011982       -0.0003964048        0.0010742106
O         0.0161019548       -0.0050179547       -0.0099128768
O        -0.0016430328        0.0100737482        0.0020021422
O         0.0005218338        0.0018000218       -0.0002756942
O         0.0004918194        0.0026038401       -0.0006087514
O        -0.0020357997        0.0079595204        0.0040435126
O         0.0013799602        0.0006270499       -0.0009261984
O         0.0023521638        0.0006999309       -0.0053181572
O         0.0011350490        0.0008449754        0.0001308996
O         0.0103594088        0.0012244256        0.0084424889
O         0.0007335500        0.0022806996        0.0006099766
O        -0.0016185048        0.0084327225       -0.0146918224
O        -0.0016297942       -0.0005157780        0.0004657634
O         0.0033785687       -0.0005300240        0.0000754736
O        -0.0003193055        0.0016499318       -0.0011053154
O         0.0045886337       -0.0017699387        0.0031093638
O         0.0000916568       -0.0003223167        0.0005518287
O        -0.0181241563       -0.0009319087       -0.0092243300
O        -0.0108502737        0.0121780224        0.0100871521
O         0.0002040175        0.0010601927       -0.0003382857
O         0.0081613764       -0.0003868854       -0.0027248678
O        -0.0000363127       -0.0007144391        0.0013175049
O         0.0009847621        0.0003332852       -0.0015452344
O        -0.0008337873        0.0020055047        0.0005728868
O         0.0048113496       -0.0071175983       -0.0094570140
O         0.0015736033       -0.0003009881        0.0001511061
O         0.0003089191       -0.0001612435       -0.0005974194
O        -0.0054671302       -0.0025363724        0.0089238086
O        -0.0005219794        0.0015031991       -0.0010323650
O         0.0026969460        0.0004507850        0.0020763219
O        -0.0012343889       -0.0040598108        0.0012161126
O         0.0005098272       -0.0008657429       -0.0001638373
O         0.0016812784        0.0000751777       -0.0009907312
O        -0.0033616841        0.0009875885        0.0119441963
O        -0.0010113325       -0.0014225601       -0.0002879448
O         0.0011477863        0.0000278188        0.0008993108
O         0.0024360263        0.0002385057        0.0009981883
O        -0.0019876070        0.0006567049       -0.0010350921
O         0.0021268540       -0.0028007859        0.0020282314
O        -0.0002435199       -0.0029569830       -0.0009935654
O        -0.0032120778        0.0008399681        0.0032684042
O         0.0010405200        0.0005840568       -0.0012484616
O         0.0008433628       -0.0023587191        0.0005559638
O        -0.0012534413       -0.0147429293       -0.0093387863
O        -0.0009352122       -0.0002996080        0.0003488717
O        -0.0134522179       -0.0009899016        0.0001703851
O        -0.0004114150       -0.0039374792       -0.0021811639
O         0.0019799952       -0.0060378596        0.0015387752
O        -0.0023118996       -0.0004615812        0.0006573348
O        -0.0054952466       -0.0005885897       -0.0021068767
O        -0.0053245891       -0.0164234355        0.0102408879
O         0.0002348103       -0.0014768066       -0.0002255508
O         0.0004467815       -0.0026287237       -0.0011919516
O        -0.0008998906       -0.0069226403        0.0022587556
O        -0.0022881821        0.0009427849       -0.0007287976
O        -0.0018563204        0.0003440918        0.0014566592
O        -0.0007297797        0.0004984253       -0.0004377738
O        -0.0084878452        0.0010339161        0.0023403175
O        -0.0005748453        0.0024688492        0.0007788060
O        -0.0013922790        0.0038133859       -0.0011212990
O         0.0027749538       -0.0022352061        0.0002942893
O         0.0055221592       -0.0025016409       -0.0017018244
O        -0.0013893889        0.0028335695       -0.0006034487
O        -0.0007367818        0.0025062354        0.0006434912
O         0.0074181572       -0.0030369541        0.0029778219
O         0.0029673788       -0.0024442673       -0.0007957047
O        -0.0003771669        0.0009428323        0.0004468327
O        -0.0030682269        0.0031249094       -0.0026851175
O        -0.0034261119       -0.0019633236        0.0025556300
O         0.0000686982       -0.0011062763       -0.0010530538
O        -0.0007833345        0.0010013692       -0.0002121037
O        -0.0012961279        0.0012284402        0.0010309328
O         0.0007851151       -0.0011328615        0.0010600826
O        -0.0033531796       -0.0018974747       -0.0027238082
O         0.0025612280       -0.0009303402       -0.0004355649
O         0.0001987887       -0.0036486940        0.0048307448
O         0.0018685834       -0.0041901825       -0.0023964602
O         0.0028651666       -0.0011703534        0.0006134110
O        -0.0011166731       -0.0019056929       -0.0008328649
O        -0.0008628530       -0.0010034114        0.0007030769
O        -0.0004493456       -0.0009909268        0.0012435867
O        -0.0017248023       -0.0008135116       -0.0006937738
O        -0.0002674209       -0.0016964516        0.0008046014
O        -0.0022323989       -0.0042435086       -0.0017650197
O        -0.0017384817       -0.0009065784        0.0003502230
O        -0.0068635255       -0.0021409616       -0.0024087041
O        -0.0009248141       -0.0023321709       -0.0011157877
O        -0.0008748205       -0.0024029845        0.0010155032
O        -0.0086156527       -0.0019816081        0.0020878678
O        -0.0020620092       -0.0007814308       -0.0003487598
     192
 i =        9, E =     -5778.1625961211
Ti         0.0018043544        0.0151782593       -0.0039444202
Ti         0.0007291740        0.0003897749        0.0002803246
Ti         0.0000786723        0.0019460452        0.0028529627
Ti         0.0002880700       -0.0006029524        0.0025586360
Ti         0.0000246508        0.0024584423       -0.0013673432
Ti         0.0025099730       -0.0003683518        0.0019007258
Ti        -0.0003285322       -0.0009426591       -0.0011806323
Ti        -0.0001275908        0.0002245346        0.0004679450
Ti         0.0004005744       -0.0004527904        0.0009281579
Ti        -0.0012525316       -0.0014048780        0.0169632835
Ti         0.0001911784        0.0000984735        0.0000722151
Ti        -0.0009004005       -0.0051754001        0.0012518195
Ti        -0.0018254044        0.0006100711       -0.0004316504
Ti        -0.0011900582        0.0003388276        0.0000593948
Ti        -0.0010594678       -0.0028153524        0.0003882828
Ti         0.0002935343       -0.0001865379       -0.0021857116
Ti         0.0002997473        0.0003824340       -0.0000961358
Ti        -0.0211418291       -0.0172109747       -0.0080047225
Ti        -0.0004062132        0.0009344457        0.0019925889
Ti        -0.0031521689        0.0002456993       -0.0004834444
Ti        -0.0017687392        0.0020402818       -0.0012463162
Ti        -0.0001213097       -0.0005805098       -0.0000069817
Ti         0.0001589834       -0.0000524426       -0.0009072327
Ti         0.0006237830       -0.0008446467        0.0007088071
Ti        -0.0006497764        0.0007847957        0.0012088263
Ti        -0.0017553523       -0.0017779106        0.0002758831
Ti         0.0000353842       -0.0001921193        0.0001700554
Ti         0.0011508900       -0.0002466240        0.0002610261
Ti         0.0008915091       -0.0017791514        0.0002032468
Ti        -0.0037778012       -0.0009649287        0.0029876140
Ti        -0.0003237091        0.0017171549       -0.0009956468
Ti         0.0007904178       -0.0000851484       -0.0002706668
Ti        -0.0007255834        0.0002104542        0.0008390380
Ti         0.0008215442        0.0000195746       -0.0018319628
Ti         0.0003794293        0.0000788891        0.0000063437
Ti         0.0144393734       -0.0018778617       -0.0028560516
Ti        -0.0007543872       -0.0022494878       -0.0054534831
Ti         0.0001172040       -0.0000443059        0.0013006422
Ti         0.0009977848        0.0008769088        0.0005877049
Ti        -0.0010179719        0.0008538533       -0.0000868452
Ti         0.0008907884       -0.0000588821        0.0006504763
Ti        -0.0003447398        0.0000185390        0.0002963386
Ti        -0.0017678678       -0.0002955554        0.0143896700
Ti         0.0003252709       -0.0000944655       -0.0004856340
Ti        -0.0003757465        0.0004148549       -0.0003060005
Ti        -0.0014476282       -0.0003325522        0.0011709344
Ti         0.0005900833        0.0004346905       -0.0013437410
Ti         0.0039696970       -0.0005362753        0.0009499429
Ti        -0.0011964566        0.0031471464        0.0021397826
Ti        -0.0002352326        0.0000510768       -0.0006049978
Ti         0.0001195501        0.0006450838        0.0001017407
Ti         0.0015227005       -0.0003263735        0.0003561538
Ti         0.0005716388        0.0012523557       -0.0067972810
Ti         0.0005607333        0.0001163982        0.0007351873
Ti         0.0004630668       -0.0003140627        0.0000029680
Ti        -0.0002811653        0.0072407944        0.0011682947
Ti        -0.0000082416        0.0003799429        0.0006237583
Ti         0.0012759846       -0.0004930062       -0.0015546243
Ti        -0.0003976072        0.0007876472        0.0000851057
Ti         0.0000526164       -0.0005944013        0.0007459468
Ti         0.0026610567       -0.0000553273       -0.0002478632
Ti         0.0008655509       -0.0000449110       -0.0000576543
Ti         0.0018521855       -0.0000785898       -0.0010191330
Ti         0.0010713050        0.0011613801        0.0022313880
O        -0.0004334696       -0.0002743044       -0.0035249560
O         0.0000606768        0.0009873414       -0.0009015240
O         0.0003116011        0.0000117123       -0.0012904814
O        -0.0018930423       -0.0026176733       -0.0013581871
O        -0.0000483560       -0.0000216145        0.0003316666
O        -0.0003941125       -0.0061078709       -0.0025718893
O        -0.0008154288        0.0001659605        0.0005357896
O         0.0000903106        0.0006035577       -0.0000382018
O        -0.0000061361       -0.0003969376        0.0014903238
O         0.0002572851        0.0003225941       -0.0023089376
O         0.0001955269        0.0000650240        0.0002929627
O        -0.0001852334       -0.0001108739        0.0000861761
O        -0.0000107458       -0.0002696419       -0.0003084794
O         0.0022923515        0.0032867511       -0.0103161925
O        -0.0000533790        0.0000402152        0.0004651077
O        -0.0001293019        0.0003885365       -0.0011215280
O         0.0005520888        0.0000632539       -0.0004420337
O         0.0010853795        0.0002297066        0.0005092461
O         0.0032969041       -0.0003940197        0.0001100829
O        -0.0002084401        0.0000707113        0.0002499358
O         0.0001461089       -0.0003733976       -0.0002752319
O         0.0009702127        0.0019059705       -0.0006811120