     192
 i =        1, E =     -5781.0039015961
Ti        -0.0631333517        0.0947259885        0.0652492990
Ti         1.8665520080        1.9235044215        4.8988856700
Ti         0.0468757879        2.0298876641        2.5303112221
Ti         1.8639283322       -0.0463325432        7.1729964635
Ti        -0.0334143120        3.8288535303       -0.0534019521
Ti         1.9496447868       13.1918225507        4.8335585969
Ti        11.2882187828        1.9807829701        2.4506895053
Ti         5.6071589871       -0.0900619013        7.2229070906
Ti         1.9051393081        3.8182704100        7.2355093825
Ti         0.0254770923       13.3465061559        2.4745467977
Ti         5.6779606196        1.8351995730        4.8273979803
Ti        11.3028246113        0.1153569045       -0.0446357171
Ti         3.6771021391        0.0967042163        0.0489662092
Ti        13.1229534313        1.7701472024        4.7047227828
Ti        13.2663360690       -0.0451392678        7.1546783106
Ti         3.7509420109        1.8029222918        2.5214472037
Ti         1.9714419136        5.6386239460        4.8510277812
Ti         0.0026433425       11.5726125902        0.0026460058
Ti        -0.0221354790        5.7233906830        2.4873585168
Ti         1.8994942604       11.3185418217        7.3609408804
Ti         0.0695666846        7.4970638394        0.0514975685
Ti         2.0399194399        9.5182289460        4.9043448895
Ti         7.4989475808        1.9566594814        2.3514310339
Ti         9.4687289335       -0.1309877812        7.2263538344
Ti         1.9468295738        7.5785600226        7.1610005341
Ti         0.1326713112        9.5812118350        2.4802371550
Ti         9.3285865771        1.8086026641        4.7675664675
Ti         7.4645958785       -0.0616290063       -0.0792782556
Ti         3.7295839710        3.7830855684       -0.0063428025
Ti        13.2367224344       13.1252167148        4.7428270204
Ti        11.3749291217        5.7265156495        2.3764412816
Ti         5.6784192774       11.3258782796        7.1525563061
Ti        13.1721205003        3.6799262071        7.2409201080
Ti         3.7727889201       13.1625088532        2.4441315153
Ti         5.6793207431        5.7200689288        4.8436664821
Ti        11.2228182358       11.3896042600        0.1075881692
Ti        11.2852783072       13.3345574116        2.3542816236
Ti         5.6581843953        3.7267526150        7.1292597307
Ti         3.8828253100       11.4219065573        0.0417728940
Ti        13.2872256625        5.5839921498        4.9021160003
Ti         5.7973015726       13.2083745051        4.8100270634
Ti        11.2684677981        3.7904875234       -0.0768825320
Ti        13.0945718364       11.3813361871        7.2645124623
Ti         3.7920320582        5.6099927118        2.3934403378
Ti         3.7989059485        7.5568700563        0.0456613691
Ti        13.3024689897        9.4207875976        4.8374838049
Ti         7.5206349023        5.6769357957        2.3895507564
Ti         9.4259331968       11.1428149271        7.1734411956
Ti        13.3042594348        7.5413098610        7.2325787162
Ti         3.8841633147        9.4436971227        2.3384197910
Ti         9.5207993825        5.5606135480        4.7066494667
Ti         7.5321310591       11.3435986777        0.0695981903
Ti        11.4043002915        9.4485661394        2.4127050794
Ti         5.6599079555        7.6062963645        7.2006184522
Ti         5.7787060123        9.4233063495        4.7427453185
Ti        11.3222483447        7.5738342088        0.0064481109
Ti         9.4274287395        3.6452731259        7.1666898677
Ti         7.5399814625       13.3078857682        2.4067613603
Ti         7.4638518526        3.7985176462       -0.0644875071
Ti         9.5116725638       13.2424311498        4.7811764879
Ti         7.5987253564        7.5339233691       -0.0566552180
Ti         9.5298476181        9.3932896548        4.7598024813
Ti         7.6386831924        9.4175063276        2.3232495017
Ti         9.5152009933        7.3582135028        7.1444707862
O         0.0550136636        0.0821454384        2.0910004019
O         1.6681869139        1.9362031359        6.7376145431
O        -0.0705535548        2.0002359099        4.4135863524
O         1.7985689570        0.1482010246        9.2360000420
O         1.8083637407       -0.0175493474        5.2613098489
O        -0.1505190727        2.0056254937        0.4928399068
O         1.8666885523        2.1761221813        2.8333736575
O        -0.0708326702       -0.0500799791        7.6234082816
O        -0.0296602826        3.9095722322        2.0824091784
O         1.9944686702       13.2706278567        6.8232178099
O        11.2876437512        1.8276298832        4.3144477181
O         5.6322459813       -0.0207635502        9.2657404959
O         2.1114712950        3.7576865698        5.1797051181
O         0.0528568669       13.3717931539        0.4384005323
O         5.6318365253        1.8528986490        2.8373455123
O        11.2848026615        0.0672958442        7.5637578008
O         3.7115074234        0.1175415858        7.6913035743
O        13.1895821317        1.8728669145        2.8317006118
O        13.1743677577       -0.1056532010        9.2166428559
O         3.7107178715        1.6498896712        4.3769289343
O         1.9081771519        5.6229115660        6.7413326147
O         0.0583871047       11.4535902908        1.9168689908
O         0.0843891618        5.7188943259        0.4675571259
O         1.9145126153       11.3167211454        5.2364003790
O         0.1228136686        7.7240446219        1.9504701891
O         2.1584799451        9.4635525688        6.7781827887
O         7.4568850249        1.8636313651        4.3602125605
O         9.4161978360        0.0362000339        9.1998014692
O         1.8233529250        7.5680291222        5.2751332011
O         0.1116384889        9.5676569792        0.2715392188
O         9.3701120335        2.0407301964        2.8408472648
O         7.4831284981       -0.1602429294        7.7002902386
O         3.7491580109        0.0577292897        2.0369386506
O        13.2188658035        1.8490228234        6.7820866319
O         0.0046118267        5.6052691462        4.4879969232
O         1.9278201484       11.3545444565        9.2651149819
O        13.1726481615       -0.0300036083        5.1325070861
O         3.7069184990        1.9540577599        0.4342908004
O         1.9461921798        5.8024599165        2.9121570694
O         0.0977906821       11.4250865933        7.5686982686
O        11.3472754375        2.0062829914        0.2868441852
O         5.8155313822       -0.0866132029        5.2761390381
O         5.5660857766        1.8281772783        6.7840253685
O        11.2699899516        0.1390950567        1.8946037147
O         1.9068818065        3.8345919950        9.2040174905
O        -0.0198097280       13.1550941904        4.4550804427
O         0.0224887871        3.8005591937        7.6777076465
O         1.8861110013       13.2363830643        2.8673015655
O         3.9654125066        3.8381115819        2.0686557560
O        13.1064913296       13.2704336971        6.7315793857
O        11.3716932389        5.6623224892        4.3852350553
O         5.6897646424       11.4702775877        9.2258429236
O        13.1780898255        3.8034300120        5.2206150999
O         3.6397232321       13.3093614421        0.5084900208
O         5.7396520897        5.9115795138        2.7396901419
O        11.3035965043       11.3379476001        7.6546540770
O        11.2515261986       13.2700030018        0.4103888601
O         5.4956174924        3.7193594101        5.1854691053
O         3.7887850233       11.3696080778        7.6808295853
O        13.2783241154        5.9243897411        2.8737769222
O         5.5179705120       13.1999128954        6.7811228735
O        11.5417330741        3.8318535137        1.9190430149
O        13.2365284749       11.4075241499        9.2091490647
O         3.8638463558        5.7140519875        4.4058374817
O         5.7624874413        5.6336047368        6.7337841775
O        11.1234227129       11.4599851544        2.0004529943
O        13.2090274094        3.9090263743        9.1359764431
O         3.7974782151       13.2147992265        4.3893525942
O        11.3575221725        5.7368715709        0.4118313760
O         5.7881295436       11.3034358299        5.2370658785
O         3.7447318784        3.7233294028        7.6493665422
O        13.2127033844       13.2152736322        2.7161744224
O        13.0534752082       11.4094158710        5.1540370830
O         3.7136831962        5.6748578655        0.4294458696
O         5.6957366691       13.1681717347        2.8685445267
O        11.2944361191        3.5632880666        7.5578047346
O         3.9624980922       11.4065984780        1.9650596596
O        13.2143617230        5.6413271356        6.8982161103
O        11.2875370849       13.3486107775        4.3220858237
O         5.6642784796        3.8113646923        9.1412130574
O         3.7857236422        7.6362168784        1.9259201001
O        13.3103867245        9.5854814818        6.7520989248
O         7.5725873841        5.5282852248        4.3203941845
O         9.4247653611       11.3234371460        9.2237204854
O        13.2647973567        7.5875047543        5.4212714993
O         3.8102637966        9.5219130910        0.3608329240
O         9.5551637930        5.5806808455        2.7903009241
O         7.5220143146       11.3463510865        7.5744716543
O        11.3446900454        9.4922235555        0.4094448773
O         5.7316755581        7.5684152404        5.1632569795
O         5.5495862358        9.4183177684        6.7579608892
O        11.2257027896        7.6056298514        2.0186853154
O         9.4354395405        3.9479000951        9.1474407238
O         7.5911135567       13.0455523678        4.4518923829
O         7.5036171933        3.6465717396        7.5500933749
O         9.4300091373       13.4666689902        2.8563101820
O         7.4435639911       -0.0383806248        2.0362525734
O         9.2151406429        1.8080837213        6.7266142791
O         0.0793113786        9.3703266263        4.4369751267
O         1.9262894124        7.5789996548        9.2016313076
O         9.3127417842       -0.0324339330        5.1953737861
O         7.6334171195        1.9048884333        0.4400764320
O         1.9644238776        9.6973208591        2.7724768059
O         0.0422363153        7.5688700571        7.6174594265
O         7.5232932493        3.7969859595        1.9481357215
O         9.5037463737       13.2090030140        6.7422043704
O        11.4414738901        9.2299711254        4.3771181979
O         5.6685051625        7.6964372528        9.1249697970
O         9.4805766112        3.6883954783        5.1838758017
O         7.5677816604       13.2197394741        0.4195748860
O         5.7408004040        9.4000030868        2.7131874561
O        11.3027115810        7.6439281293        7.5965172069
O         3.7904374563        7.3656250954        7.6018522783
O        13.3243441171        9.6152437540        2.8084476582
O        13.2653882584        7.6762387974        9.3243171523
O         3.8514299653        9.4253291011        4.2964977512
O         9.6085455589        5.5296727945        6.7539134126
O         7.6426911629       11.3272400118        1.9592891343
O         7.3444763436        5.6957733840        0.3714462668
O         9.5564909914       11.2279872536        5.1980584273
O         7.8581697356        7.5903051683        1.9237515966
O         9.4495755516        9.4172123583        6.8094010783
O         7.5591715744        9.3774059917        4.3252901776
O         9.4715565573        7.4401950490        9.2184779628
O         9.3562945613        7.4824400327        5.2467584848
O         7.5176666688        9.4676048355        0.3636605476
O         9.5712339748        9.5091062272        2.8714434365
O         7.5964527902        7.5409573403        7.5885754859
     192
 i =        2, E =     -5781.0968178652
Ti        -0.0592502074        0.1165804585        0.0322909475
Ti         1.8565728413        1.9282968406        4.8820201594
Ti         0.0398830663        2.0106838588        2.4897691015
Ti         1.8455516276       -0.0656160843        7.1917299575
Ti        -0.0566427623        3.8287012765       -0.0335247045
Ti         1.9521959219       13.2066229077        4.8399880089
Ti        11.3009148830        1.9582371598        2.4332145680
Ti         5.6006976499       -0.0751208173        7.2140727686
Ti         1.9052434444        3.8053539234        7.2470475756
Ti         0.0083609550       13.3335521192        2.4602850503
Ti         5.6817474321        1.8516387890        4.8123991933
Ti        11.2917290432        0.0930576698       -0.0328526462
Ti         3.6603003226        0.0814968422        0.0343166516
Ti        13.1635867014        1.7923856256        4.7355675016
Ti        13.2649049488       -0.0403765281        7.1775724563
Ti         3.7642002405        1.8329643379        2.5072172281
Ti         1.9634185707        5.6574344351        4.8328791144
Ti         0.0009034150       11.5638727383       -0.0059245079
Ti        -0.0151177582        5.7098687030        2.4792451168
Ti         1.8801505146       11.3447991055        7.3307948866
Ti         0.0337042964        7.4889220798        0.0295435640
Ti         2.0238995994        9.5194282364        4.8645953708
Ti         7.5006705090        1.9551184026        2.3330610524
Ti         9.4825474746       -0.1113506643        7.2264911052
Ti         1.9383961125        7.5719514390        7.1755527655
Ti         0.1044031889        9.5521147707        2.4918762331
Ti         9.3509163605        1.8216035259        4.7913444509
Ti         7.4669738299       -0.0338813906       -0.0642550993
Ti         3.7396467020        3.7713360759        0.0034863870
Ti        13.2315957505       13.1172852561        4.7786918739
Ti        11.3599934930        5.7144236839        2.3857483110
Ti         5.6737785561       11.3192148061        7.1744113232
Ti        13.1642065807        3.7050471479        7.2308054223
Ti         3.7820036287       13.1936125717        2.4442526008
Ti         5.6986766592        5.6983840264        4.8346302567
Ti        11.2240455428       11.3868399921        0.0816367795
Ti        11.3051545211       13.3133586700        2.3468093224
Ti         5.6657778942        3.7256092262        7.1417252345
Ti         3.8662502302       11.3961780753        0.0212276877
Ti        13.2755449653        5.5928327747        4.8717893838
Ti         5.7717662968       13.2037847331        4.8061347216
Ti        11.2624335104        3.7981440371       -0.0439772337
Ti        13.1238094286       11.3534322405        7.2618351143
Ti         3.8033291327        5.6320021826        2.3937396565
Ti         3.7902142955        7.5815036694        0.0315611060
Ti        13.2840141860        9.4298597171        4.8413632511
Ti         7.4939046054        5.6841723339        2.4118335663
Ti         9.4109397995       11.1779551638        7.1699261715
Ti        13.2969016995        7.5276331958        7.1967580541
Ti         3.8588834516        9.4347001962        2.3518355253
Ti         9.5193990877        5.5728838774        4.7264505382
Ti         7.5651122670       11.3538618036        0.0422295864
Ti        11.3945977501        9.4537732581        2.4341999989
Ti         5.6643490210        7.5819706607        7.2242377309
Ti         5.7699290856        9.4200530358        4.7584256076
Ti        11.3303950603        7.5857034849       -0.0002900799
Ti         9.4363266522        3.6639688511        7.1746613159
Ti         7.5408335848       13.3244380096        2.3893739416
Ti         7.4745918098        3.7980631212       -0.0580490398
Ti         9.4972749315       13.2365185034        4.7882857352
Ti         7.6105071238        7.5335587731       -0.0627479682
Ti         9.5270894251        9.4211617468        4.7783378253
Ti         7.6133093472        9.4155658420        2.3304792174
Ti         9.5179118485        7.3894965664        7.1531220347
O         0.0560763143        0.0644232683        2.0270240255
O         1.7603484956        1.9171544185        6.7658530036
O        -0.0222341840        1.9772529172        4.3923621810
O         1.7969731444        0.1239865612        9.2096576104
O         1.8157416560       -0.0106544169        5.2674819530
O        -0.1156054095        2.0074689933        0.4529132025
O         1.8676367996        2.0885012980        2.8117992819
O        -0.0524676597       -0.0539100720        7.6411639229
O        -0.0611230887        3.8908953751        2.0702166482
O         1.9861016660       13.2447269367        6.8340196476
O        11.2944093266        1.8437036813        4.3410807581
O         5.6041780807        0.0183568440        9.2484233831
O         2.0624975312        3.7794843156        5.1945956230
O         0.0475173353       13.3736280855        0.4347584892
O         5.6340645476        1.9213734460        2.8216617483
O        11.3094665272        0.0757067293        7.5723187142
O         3.7019692065        0.0830965107        7.6684581422
O        13.1899409254        1.8974879783        2.8387899023
O        13.1858801584       -0.0263168821        9.1873931177
O         3.7217668159        1.6811045134        4.3966033007
O         1.8713859525        5.6371207219        6.7698738968
O         0.0240263367       11.4263306849        1.9130623981
O         0.0370033264        5.7082841447        0.4599367162
O         1.8933085863       11.3350711044        5.2424675493
O         0.1258672495        7.6981603541        1.9373871475
O         2.0532124752        9.4673094604        6.7933239772
O         7.4976200249        1.9140021245        4.3798820277
O         9.4181105770        0.0142534061        9.1720122443
O         1.8953517489        7.5662225421        5.2694441917
O         0.0841327498        9.5421593098        0.2690426977
O         9.3822011031        1.9807577810        2.8208300923
O         7.4778534983       -0.1313249355        7.6722957501
O         3.7348422902        0.0640260589        2.0317319767
O        13.2723249356        1.8662485845        6.7887368594
O         0.0120361669        5.5949547321        4.4633153519
O         1.8909926560       11.3527872717        9.2459663796
O        13.2295039143       -0.0045624787        5.1716028934
O         3.7140282944        1.9343257711        0.4437483690
O         1.9423766686        5.7492023840        2.8692386462
O         0.0479625166       11.4329251069        7.5982539488
O        11.3225436026        1.9830211088        0.3134498026
O         5.7867277594       -0.0571691519        5.2553566046
O         5.6321108579        1.8250882106        6.7794933895
O        11.2989217104        0.1287467484        1.9183270724
O         1.8856299688        3.8175273055        9.2351465612
O        -0.0110606772       13.2074236360        4.4121807398
O         0.0018314332        3.7810658803        7.6774369261
O         1.8811653825       13.2379391165        2.8641672643
O         3.9001135236        3.8486134590        2.0572772804
O        13.1567198392       13.2352961778        6.7825155784
O        11.3676692672        5.6655355108        4.4035969846
O         5.6967855764       11.4550654181        9.2259238150
O        13.1570290844        3.8048797489        5.2219035340
O         3.6501692109       13.2946676302        0.4764233625
O         5.7106044169        5.8727113639        2.7652909517
O        11.3199340636       11.3345451725        7.6155707165
O        11.2747994536       13.2732055230        0.3882489153
O         5.5870156686        3.7217724965        5.1877742339
O         3.7915521533       11.3758719476        7.6654388313
O        13.2875889387        5.9018209826        2.8673120717
O         5.5215142740       13.2041773516        6.8082677475
O        11.4761463574        3.8068138330        1.9612877267
O        13.2560939050       11.4304225827        9.1983190340
O         3.8554314027        5.7216157750        4.3993497160
O         5.7514638810        5.6323235732        6.7346072383
O        11.2174524591       11.4106042694        2.0066580496
O        13.2071008848        3.8897407124        9.1474603338
O         3.7829369010       13.2312192953        4.4152381874
O        11.4028641621        5.7427199650        0.4081865129
O         5.7407044302       11.2894858176        5.2485119287
O         3.7567317813        3.7244866583        7.6583439858
O        13.2312830569       13.2684364679        2.7770601201
O        13.0884936865       11.3473155969        5.1602335320
O         3.7413486060        5.6809335433        0.4248438929
O         5.6937920316       13.2324320436        2.8546095723
O        11.3028245512        3.5815340734        7.5794754438
O         3.9225754505       11.4000889919        1.9853436530
O        13.2221459738        5.6546513718        6.8357830776
O        11.3054483771       13.3077962896        4.3405900093
O         5.6584829655        3.7836456433        9.1591856061
O         3.7553070176        7.6112542695        1.9411395520
O        13.3096664997        9.5434648423        6.7820207080
O         7.5846586143        5.5203350644        4.3315200558
O         9.4333311264       11.3100445445        9.1734422072
O        13.2987646876        7.5754834895        5.3424433213
O         3.7972428478        9.5092101354        0.3803880215
O         9.5060064778        5.5790360533        2.7972486766
O         7.5191982451       11.3221709679        7.5649921241
O        11.3611400266        9.4842192703        0.4694688458
O         5.7453303132        7.5504189908        5.1797693075
O         5.6021767692        9.4039228549        6.7703356331
O        11.3003610069        7.6167631985        2.0006573007
O         9.4163284887        3.9284572778        9.1492767928
O         7.5733153134       13.0878243391        4.4070269978
O         7.5207843306        3.6941204353        7.5745960946
O         9.4261926964       13.3737133416        2.8231386930
O         7.4813394136        0.0025660107        2.0334498377
O         9.2821641321        1.8234577456        6.7598331144
O         0.0526012687        9.4369759551        4.4209340841
O         1.9060501549        7.6633536528        9.2129842803
O         9.3567284265       -0.0230758581        5.2043247094
O         7.5609211032        1.9138812756        0.4103990724
O         1.9357219694        9.6330016251        2.7677464189
O         0.0322563034        7.5848799310        7.6163195563
O         7.4798930777        3.8184356358        1.9466533650
O         9.4848087962       13.2165786037        6.7609517965
O        11.4119539353        9.2491509369        4.4017051513
O         5.6717663158        7.6485624907        9.1551512779
O         9.4560226782        3.7122937372        5.1954230437
O         7.5859029942       13.2531259066        0.4294732741
O         5.7304492867        9.4118444127        2.7523322054
O        11.3378557128        7.6247066822        7.6373132837
O         3.7828390052        7.3966047349        7.5978695554
O        13.2910610015        9.6011872857        2.8118619055
O        13.2663145337        7.6590225855        9.2271509390
O         3.8432611055        9.3937563534        4.3195028315
O         9.5404874093        5.5646021898        6.7642851937
O         7.6643959918       11.3296790211        1.9545877734
O         7.4159216902        5.6906769127        0.4036757601
O         9.5559924889       11.2539266022        5.2082690557
O         7.7910431443        7.5598358484        1.9430635493
O         9.4651716156        9.4104147056        6.8357363815
O         7.5809267467        9.3887476239        4.3432139830
O         9.4705679376        7.4986448593        9.1814753028
O         9.4031717749        7.4928528566        5.2323972495
O         7.5320243398        9.4544844291        0.3669968349
O         9.5274407614        9.5076173193        2.8654768849
O         7.5891932694        7.5156346681        7.5951106734
     192
 i =        3, E =     -5781.1343077124
Ti        -0.0482669505        0.1172377530        0.0174724120
Ti         1.8641876340        1.9207932466        4.8698974361
Ti         0.0359344330        2.0059152084        2.4716744618
Ti         1.8505787460       -0.0538453079        7.2010327694
Ti        -0.0660019129        3.8171144285       -0.0303115303
Ti         1.9494399097       13.2228414136        4.8286544753
Ti        11.3239300633        1.9446409459        2.4326373741
Ti         5.6055621137       -0.0517071347        7.2110121479
Ti         1.9012080226        3.7946566978        7.2469745766
Ti         0.0051171896       13.3342097266        2.4469943801
Ti         5.6871757214        1.8599814232        4.8131238656
Ti        11.2853131762        0.0818839649       -0.0274284101
Ti         3.6701373216        0.0800524787        0.0272457020
Ti        13.1814937648        1.8133352135        4.7667795897
Ti        13.2494709694       -0.0287114948        7.1970915967
Ti         3.7726377969        1.8414644397        2.4841156491
Ti         1.9586718158        5.6668894653        4.8266955142
Ti        -0.0118606863       11.5525128908       -0.0150456102
Ti        -0.0089056627        5.7000542717        2.4719176314
Ti         1.8658846180       11.3528556278        7.2972410849
Ti         0.0152334756        7.4975572286        0.0071296963
Ti         2.0038682451        9.5189193093        4.8477184072
Ti         7.5159059491        1.9469732604        2.3336455142
Ti         9.4704081799       -0.0926352236        7.2175802295
Ti         1.9260975975        7.5676700052        7.1773620232
Ti         0.0843819541        9.5310862014        2.4915516258
Ti         9.3660763459        1.8372457383        4.7874740380
Ti         7.4667914377       -0.0100425357       -0.0561129686
Ti         3.7450922175        3.7765102540        0.0125922725
Ti        13.2340268388       13.1414856678        4.7829269858
Ti        11.3627868603        5.7080400783        2.3925007834
Ti         5.6691052465       11.3188762510        7.1903522073
Ti        13.1765061705        3.7210016316        7.2188683399
Ti         3.7799400706       13.2179791747        2.4227204322
Ti         5.7001311915        5.6808419750        4.8403789956
Ti        11.2406215771       11.3880845386        0.0546188562
Ti        11.3233322384       13.2972335871        2.3674944268
Ti         5.6655306313        3.7321318762        7.1588030571
Ti         3.8449988368       11.3897700535        0.0194147497
Ti        13.2708579933        5.5966599523        4.8497570019
Ti         5.7473985790       13.2034468113        4.7978745360
Ti        11.2685362550        3.7963463079       -0.0206432767
Ti        13.1631773647       11.3304883521        7.2720692885
Ti         3.7945202453        5.6321987688        2.3915688765
Ti         3.7774495599        7.5939718157        0.0153353432
Ti        13.2809552666        9.4378998369        4.8398382289
Ti         7.4995627873        5.6904900131        2.4061627975
Ti         9.4179942318       11.2085425770        7.1643205735
Ti        13.2957142376        7.5232406919        7.1831533385
Ti         3.8391078135        9.4330044263        2.3769216698
Ti         9.5014350462        5.5847986280        4.7441188922
Ti         7.5711551172       11.3479954338        0.0256476835
Ti        11.4016666243        9.4554047009        2.4259763069
Ti         5.6718205565        7.5612654890        7.2355327811
Ti         5.7583603539        9.4145835149        4.7766311314
Ti        11.3518619805        7.5905801148       -0.0137246292
Ti         9.4329267506        3.6865971250        7.1837391740
Ti         7.5477057139       13.3301482348        2.3805312970
Ti         7.4821576500        3.8047585691       -0.0480628683
Ti         9.4892154056       13.2302931594        4.7892953693
Ti         7.6113016325        7.5360990528       -0.0609076857
Ti         9.5177106547        9.4294337331        4.7753222888
Ti         7.6082423051        9.4337924990        2.3504202531
Ti         9.5111280458        7.4303791646        7.1637623866
O         0.0450803153        0.0757299760        1.9990610678
O         1.8036283035        1.9141945316        6.7780194184
O         0.0054366958        1.9476427655        4.3954174724
O         1.8155648566        0.1234527950        9.2056289418
O         1.8083041371       -0.0134448003        5.2648169494
O        -0.1060592883        1.9924082031        0.4428786925
O         1.8706746797        2.0264564601        2.7998137286
O        -0.0389501332       -0.0613383663        7.6343010629
O        -0.0887303940        3.8762314953        2.0477235915
O         1.9613294295       13.2322800236        6.8334742753
O        11.2926848833        1.8523021355        4.3707250990
O         5.5910886528        0.0148046853        9.2342053176
O         2.0306315242        3.7850179867        5.2120665187
O         0.0378982827       13.3582980469        0.4252176054
O         5.6451806511        1.9545356730        2.8166711155
O        11.3062354943        0.0583517616        7.5787934427
O         3.7124408482        0.0376879241        7.6632742101
O        13.2037149420        1.8916281071        2.8492549867
O        13.1920830804        0.0376505344        9.1784978329
O         3.7484983081        1.7255261794        4.4032263301
O         1.8583356976        5.6501697185        6.7970571458
O        -0.0146824936       11.4077921853        1.9196465091