     192
 i =        1, E =     -5781.0039015961
Ti        -0.0039824448        0.0145805318       -0.0061171466
Ti        -0.0079463808       -0.0034389588       -0.0161207047
Ti        -0.0064688344        0.0016843696       -0.0149659497
Ti        -0.0066301765        0.0091233881        0.0133592825
Ti        -0.0051795220       -0.0064564955        0.0142604350
Ti         0.0032896227        0.0029388977        0.0029562867
Ti         0.0038555529        0.0031856768       -0.0261534872
Ti         0.0000788926        0.0068971807        0.0046459392
Ti        -0.0002836817       -0.0129262780       -0.0056355109
Ti        -0.0118166103       -0.0032758188        0.0003763784
Ti        -0.0145102607        0.0024938699        0.0002597765
Ti        -0.0047138961       -0.0073346735       -0.0009478758
Ti        -0.0002938313       -0.0052909682       -0.0053612397
Ti         0.0144269220        0.0051006074        0.0230155287
Ti        -0.0143194855        0.0082786614        0.0085696698
Ti         0.0030282618        0.0209480161       -0.0135989770
Ti        -0.0016640681        0.0066147184       -0.0185148140
Ti        -0.0016459055        0.0002933151       -0.0101114565
Ti         0.0068279698        0.0035829860        0.0047811658
Ti         0.0099856509        0.0070833696       -0.0170059762
Ti        -0.0091541111        0.0068873231       -0.0100620797
Ti        -0.0033034723       -0.0108404610       -0.0313298079
Ti        -0.0018960588       -0.0120928440       -0.0074701199
Ti        -0.0037515883        0.0081734466        0.0004696797
Ti        -0.0012732380       -0.0057683091        0.0098753676
Ti         0.0000442292       -0.0064021803        0.0129229441
Ti        -0.0000431854        0.0014134314        0.0089410333
Ti         0.0143191000        0.0074669940        0.0281455732
Ti         0.0151665459        0.0005141501        0.0057893289
Ti        -0.0106737520        0.0201597370       -0.0079174765
Ti         0.0063164302       -0.0074621459        0.0015954726
Ti        -0.0017673952       -0.0034528514        0.0117933102
Ti         0.0047001474        0.0025216150       -0.0119316172
Ti         0.0054722153        0.0173647410        0.0008482443
Ti         0.0153458381       -0.0089634908       -0.0085727628
Ti         0.0008956994        0.0029894096       -0.0117925278
Ti         0.0008488701        0.0019206019       -0.0018675224
Ti        -0.0033121944        0.0007107305        0.0007741635
Ti        -0.0055148944       -0.0024873368       -0.0160233110
Ti        -0.0108719366        0.0097996764        0.0009331515
Ti        -0.0093774828       -0.0069681940       -0.0059164375
Ti         0.0038677021        0.0134064952        0.0103903108
Ti         0.0079724188        0.0022458189        0.0002889030
Ti         0.0044944754        0.0076391810        0.0059281235
Ti         0.0018482817        0.0101435429       -0.0178189426
Ti         0.0005032172        0.0073975915       -0.0024488162
Ti         0.0026539701        0.0063052822       -0.0024291585
Ti        -0.0075411353        0.0280797919        0.0047853796
Ti        -0.0070920806        0.0001907008        0.0201006395
Ti        -0.0118018047        0.0056261371        0.0004994658
Ti        -0.0033091644        0.0017464211        0.0103308769
Ti         0.0092169903       -0.0000219862       -0.0146584441
Ti         0.0103336516        0.0054393195       -0.0063680228
Ti         0.0060328907       -0.0083419637        0.0055930293
Ti        -0.0124110687        0.0051796024        0.0018072984
Ti         0.0026236813        0.0084509763       -0.0067719963
Ti        -0.0043868706       -0.0021268660       -0.0020661684
Ti         0.0098637980       -0.0073602967       -0.0030618795
Ti         0.0101402125       -0.0026644214        0.0036841729
Ti        -0.0072848492       -0.0083515272        0.0096444605
Ti         0.0014987304        0.0027113640       -0.0045386863
Ti         0.0001944646        0.0008226267        0.0063733876
Ti        -0.0013535113        0.0050975826        0.0043019985
Ti        -0.0110888086        0.0063412369        0.0061744075
O         0.0013211796        0.0017500436       -0.0078762880
O         0.0099598533       -0.0020832295        0.0157773804
O         0.0162168960       -0.0035033825        0.0038107671
O         0.0036380472       -0.0032690936       -0.0049022875
O         0.0009051897        0.0001794579       -0.0062998693
O         0.0056620460       -0.0019287502       -0.0050046005
O         0.0040636386       -0.0115874875       -0.0006796016
O         0.0165241689       -0.0009455493        0.0048077590
O        -0.0030119048       -0.0038559931       -0.0055574871
O        -0.0006169916       -0.0174571274        0.0021537157
O        -0.0130444067       -0.0004848987        0.0170017146
O        -0.0187771048        0.0045894954       -0.0033329741
O        -0.0052621447        0.0106131633        0.0060269264
O         0.0013525785       -0.0042914354        0.0016793437
O         0.0015223219        0.0060290685       -0.0029182274
O         0.0077271929        0.0008134610        0.0024662256
O         0.0007599817       -0.0037199318       -0.0050613468
O        -0.0010542351        0.0029972325       -0.0076351875
O         0.0081181118        0.0089002857       -0.0079180992
O         0.0061156700        0.0010397586        0.0171993763
O        -0.0042215900        0.0096233781        0.0176754579
O        -0.0017123280       -0.0086449565        0.0032839804
O        -0.0062456033       -0.0100489837       -0.0003956275
O        -0.0013554576        0.0150282955        0.0036645187
O        -0.0004688938       -0.0051220643        0.0006119067
O        -0.0093602791       -0.0018104275        0.0188681620
O         0.0176306366        0.0042491149        0.0050708709
O         0.0029423215       -0.0019394938       -0.0054697575
O         0.0085770438       -0.0003547923       -0.0059178300
O        -0.0030891062       -0.0043125090       -0.0016642576
O         0.0040301059       -0.0059202918       -0.0097204617
O        -0.0030103322        0.0027036169       -0.0226517379
O        -0.0005956248       -0.0122339841       -0.0008398537
O         0.0053909288        0.0034288933       -0.0039851450
O         0.0112284805       -0.0008450522       -0.0084992681
O        -0.0135913869        0.0004328109        0.0035959651
O         0.0057852981        0.0102260226        0.0056798061
O         0.0005365746       -0.0050634640        0.0062723428
O        -0.0073950363       -0.0060187146       -0.0082162597
O        -0.0249174170        0.0025470608        0.0104464437
O        -0.0029712796       -0.0151451710        0.0073783336
O        -0.0035024749        0.0145255331       -0.0042636398
O         0.0065914603       -0.0021072223        0.0008588641
O         0.0034687778       -0.0009329227        0.0054554085
O        -0.0136543309       -0.0010843075        0.0057791644
O         0.0072309628        0.0054032235       -0.0106871845
O        -0.0079005529       -0.0006940360       -0.0069399427
O         0.0039915266       -0.0008700502        0.0010571639
O        -0.0076768495       -0.0079480808       -0.0063349571
O         0.0051655331       -0.0182626202        0.0041200280
O         0.0042776112       -0.0005231889        0.0033937194
O         0.0016055115       -0.0007460423       -0.0041314550
O        -0.0033351428       -0.0134752551        0.0007356087
O         0.0009979748        0.0006838630       -0.0102864347
O        -0.0152707348       -0.0047993268        0.0042049035
O         0.0014787952       -0.0003491753       -0.0012280172
O         0.0028500646        0.0118994899       -0.0056507699
O         0.0094501436       -0.0031891748        0.0017030487
O         0.0117208314        0.0002443737        0.0004231330
O         0.0036181231       -0.0042284208        0.0011770568
O        -0.0017105940        0.0002799521        0.0068671450
O        -0.0084457989       -0.0065532210        0.0065022870
O         0.0079063210        0.0010515091       -0.0005025931
O        -0.0097921312        0.0000272023       -0.0015242796
O        -0.0024813401        0.0055233994        0.0042685502
O         0.0113774619       -0.0195344489        0.0076171101
O         0.0009862084       -0.0009287397        0.0052643300
O        -0.0062245859        0.0015269797        0.0104197156
O         0.0049280405       -0.0042189487       -0.0015609935
O        -0.0076191863       -0.0049749218       -0.0033054271
O         0.0078016151       -0.0001930913       -0.0014699633
O         0.0055116686        0.0061520378        0.0128591880
O         0.0015807906       -0.0328722116        0.0036405986
O         0.0029609073       -0.0003317096        0.0012350586
O        -0.0026482818        0.0076306456       -0.0021493592
O         0.0058435760        0.0023722302        0.0024560179
O        -0.0027958991       -0.0131018308        0.0103064160
O         0.0005433123        0.0042246683       -0.0061876133
O         0.0211475103       -0.0038722488        0.0054603824
O        -0.0122999297       -0.0021383053        0.0030115418
O        -0.0024691499       -0.0108424940        0.0088195883
O        -0.0004306055       -0.0082707146        0.0097397822
O         0.0024041272       -0.0007163935        0.0037354772
O        -0.0064699661       -0.0015394919       -0.0091606883
O         0.0018177881       -0.0047637819       -0.0329415217
O         0.0001496801       -0.0039874426        0.0030954202
O        -0.0186450156       -0.0007748572       -0.0011220807
O         0.0066108556       -0.0023847801        0.0026343215
O         0.0037166497       -0.0029984791        0.0118649259
O        -0.0007777488       -0.0013693861        0.0051376043
O         0.0038036360        0.0010058421       -0.0023709493
O         0.0083667052        0.0022106190       -0.0066426169
O        -0.0117111425       -0.0023064583       -0.0026838307
O         0.0029555875        0.0047162885       -0.0082502489
O         0.0070181860        0.0041906366        0.0059062768
O        -0.0097012138       -0.0088673115       -0.0100708633
O         0.0037482688        0.0191271993       -0.0039980822
O         0.0081600997        0.0034137976        0.0077578103
O        -0.0013604493        0.0086889124       -0.0105200306
O         0.0002179140        0.0095548446        0.0002577610
O         0.0050046534        0.0003005730       -0.0004241117
O        -0.0082466828       -0.0034771365       -0.0072944722
O        -0.0027397332       -0.0071129541        0.0026189340
O         0.0008403091        0.0014251965        0.0032964511
O        -0.0037365760        0.0095491986       -0.0018425090
O        -0.0027083601       -0.0062617889        0.0045015438
O        -0.0076082032        0.0027149890        0.0049600780
O        -0.0034445136       -0.0056043393        0.0079472658
O        -0.0024374251        0.0054365100        0.0011600208
O         0.0016114560        0.0129610396        0.0032100679
O         0.0045687135        0.0030336834        0.0052751766
O         0.0233580189       -0.0021512565        0.0110853538
O        -0.0020919500        0.0045445359       -0.0012420582
O        -0.0122800701       -0.0018940217       -0.0000491833
O         0.0065183952       -0.0037789617       -0.0116110330
O        -0.0030494154       -0.0022773449        0.0081394053
O        -0.0071812954        0.0095855673        0.0002772769
O         0.0025164893        0.0003053567        0.0058954309
O         0.0071440232       -0.0014984880        0.0020100375
O        -0.0020733064        0.0070554599        0.0016650128
O        -0.0061375836       -0.0107652911        0.0037738416
O         0.0011098791       -0.0240057838       -0.0018480748
O         0.0229997611        0.0021357025        0.0016034621
O        -0.0078885349        0.0054006546       -0.0076782898
O         0.0040986670       -0.0037422865       -0.0067359176
O         0.0022511521       -0.0107244897        0.0017424801
O        -0.0214307648        0.0014686376       -0.0060378005
O        -0.0023256544       -0.0044784363        0.0037929474
     192
 i =        2, E =     -5781.0968178652
Ti        -0.0022925442        0.0038556941        0.0025913501
Ti         0.0012500464       -0.0038462782       -0.0045926320
Ti        -0.0036408602       -0.0016894841       -0.0113873643
Ti         0.0010892223        0.0169790035        0.0045777668
Ti         0.0025238124       -0.0035369522        0.0028922095
Ti        -0.0038067867        0.0061462421       -0.0048749119
Ti        -0.0005590887        0.0042098531       -0.0062779973
Ti         0.0002556200        0.0072954097        0.0062660594
Ti        -0.0051486343       -0.0085948639       -0.0026285644
Ti        -0.0009855734       -0.0017152918       -0.0034329797
Ti        -0.0075593903        0.0000081887        0.0023819006
Ti         0.0020254583        0.0011124217       -0.0037894200
Ti         0.0046811564       -0.0040132563       -0.0038515061
Ti         0.0030202303        0.0069668894        0.0151577855
Ti        -0.0103535028        0.0080233869        0.0023584282
Ti        -0.0024522796        0.0143027189       -0.0103336488
Ti         0.0003493612        0.0036354365       -0.0106297359
Ti        -0.0019033917        0.0054113547       -0.0054068334
Ti         0.0092573543        0.0049312476        0.0032038209
Ti         0.0010163952       -0.0032234183       -0.0113668391
Ti        -0.0032114678        0.0077124269       -0.0110954612
Ti        -0.0049958191       -0.0096517048       -0.0107261990
Ti         0.0041265491       -0.0014578892        0.0042369391
Ti        -0.0079403073        0.0087413840       -0.0012101304
Ti        -0.0059445124       -0.0022647057        0.0068181525
Ti        -0.0072218247       -0.0023113195        0.0037825001
Ti         0.0013104877        0.0059677872       -0.0020550165
Ti         0.0002259362        0.0093541841        0.0066604456
Ti         0.0061658145        0.0052753605        0.0063580031
Ti        -0.0011727740        0.0168312107       -0.0041501082
Ti         0.0015513527       -0.0003034469        0.0027303299
Ti        -0.0064498258       -0.0019910617        0.0059601785
Ti         0.0120983120       -0.0005531904       -0.0089804166
Ti        -0.0052547131        0.0112056947       -0.0053466281
Ti         0.0073408925       -0.0038448857       -0.0040045477
Ti         0.0149851318       -0.0067018923       -0.0098333280
Ti         0.0014680960        0.0005171805        0.0068709010
Ti        -0.0021191026        0.0003436474        0.0033382720
Ti        -0.0069341105        0.0060579648       -0.0071002605
Ti        -0.0035603940        0.0096412702       -0.0024373924
Ti        -0.0096312375        0.0007053895        0.0027138543
Ti         0.0049684506        0.0074770836        0.0055623207
Ti         0.0103985375       -0.0009436974        0.0034916267
Ti        -0.0034048420        0.0039310284        0.0028065378
Ti        -0.0017870674       -0.0041903397       -0.0114616799
Ti         0.0000484840       -0.0002138086       -0.0026079901
Ti         0.0114179978        0.0026400374       -0.0072729840
Ti         0.0014384164        0.0130150798       -0.0009350493
Ti        -0.0021790829        0.0065944824        0.0160952527
Ti        -0.0076905713        0.0042074490        0.0029733081
Ti        -0.0078612929        0.0044690535        0.0062233647
Ti        -0.0030173577       -0.0054817807       -0.0010032295
Ti         0.0076939690        0.0022312956       -0.0051306787
Ti         0.0057160238       -0.0083770412       -0.0018016056
Ti        -0.0033750147       -0.0033348279        0.0037021515
Ti         0.0066801930        0.0079439076       -0.0045858562
Ti        -0.0076534973        0.0006393923       -0.0030455622
Ti         0.0088118646       -0.0105065351       -0.0000424869
Ti         0.0036640519        0.0056418165        0.0043670247
Ti        -0.0039142055       -0.0036833355        0.0049477583
Ti        -0.0024206549       -0.0021772549        0.0010002690
Ti        -0.0038799982       -0.0096567530        0.0003549408
Ti         0.0048335010        0.0027618418        0.0054163657
Ti        -0.0090960872        0.0066537371        0.0009424802
O        -0.0013208690        0.0117155504       -0.0008280507
O         0.0014300120        0.0010950446        0.0056747147
O         0.0026985343       -0.0034601440        0.0067007243
O         0.0075203311        0.0013949611        0.0007376443
O        -0.0014223268       -0.0035457480       -0.0046759491
O         0.0001555389       -0.0070858477        0.0039678582
O         0.0022440056       -0.0045821887       -0.0001522751
O         0.0075736753       -0.0012985209       -0.0016945345
O        -0.0018891602       -0.0052641875       -0.0038956733
O        -0.0024247279       -0.0122862967       -0.0002938536
O        -0.0059762107       -0.0006882688        0.0093435569
O        -0.0041686139       -0.0026902340       -0.0019565611
O        -0.0017276053        0.0009052446        0.0059692489
O        -0.0007626135       -0.0084535822       -0.0025452449
O         0.0054373908        0.0000251222       -0.0004355672
O         0.0012982858       -0.0030132051        0.0019951726
O         0.0036165918       -0.0048835525        0.0003971428
O         0.0046568407       -0.0021115650       -0.0049345412
O        -0.0013208316        0.0050892006        0.0000219647
O         0.0075114944        0.0036007352        0.0079694895
O         0.0002588341        0.0053417861        0.0084100857
O        -0.0024835627       -0.0060906295        0.0062844331
O        -0.0013689585       -0.0042414955       -0.0001555753
O         0.0000526138        0.0073404351        0.0013398457
O        -0.0041225417       -0.0024069220        0.0053567948
O        -0.0032843512        0.0023871158        0.0071492068
O         0.0067075812       -0.0025870254        0.0001632556
O         0.0020419016       -0.0008575596        0.0000232272
O         0.0007607855        0.0041560073       -0.0077552872
O        -0.0068455150       -0.0006335633       -0.0008372019
O         0.0030623989       -0.0020317750       -0.0076636909
O         0.0013091092        0.0007709670       -0.0057569821
O         0.0011675158       -0.0148604779       -0.0011899917
O         0.0002080406        0.0032017131       -0.0026384269
O         0.0089368025        0.0000687940       -0.0042879563
O        -0.0001845011       -0.0005511917        0.0015504538
O         0.0015612601       -0.0025007096        0.0025952042
O        -0.0004523825        0.0012053278        0.0050517187
O        -0.0091992166       -0.0006736265       -0.0000144321
O        -0.0070423140        0.0001835580        0.0035653391
O        -0.0037891090       -0.0086396838        0.0077301366
O        -0.0035895504       -0.0029202267       -0.0036547489
O         0.0012164515        0.0055174836        0.0008733371
O        -0.0004778096       -0.0146555000        0.0021287763
O        -0.0042684509        0.0023981233       -0.0030035376
O        -0.0014887815       -0.0014943720        0.0005361090
O        -0.0024240378       -0.0009848195       -0.0062237615
O         0.0104746352       -0.0015567375        0.0018121792
O        -0.0039900311       -0.0152879400       -0.0048405011
O         0.0040936040       -0.0045664055       -0.0078011757
O         0.0028726020       -0.0006744044       -0.0052964895
O         0.0023916217       -0.0029916348       -0.0019097021
O         0.0016355464       -0.0159402700       -0.0007112121
O         0.0019407923       -0.0000854742       -0.0043249920
O        -0.0099483326       -0.0028279985        0.0034678029
O        -0.0047983693       -0.0003354556        0.0063950919
O         0.0025840691        0.0039674540        0.0042199102
O        -0.0016129373       -0.0000985157        0.0027984918
O         0.0052088988       -0.0047686922        0.0062351684
O        -0.0067777606       -0.0028387024       -0.0001424550
O         0.0025804277       -0.0028134424       -0.0035023549
O        -0.0047571253        0.0074267789       -0.0045095470
O        -0.0113603620       -0.0055718041        0.0042651518
O        -0.0079568435       -0.0037782531        0.0020717401
O        -0.0038957771        0.0033104073        0.0071543307
O         0.0056889781        0.0037788190       -0.0006582484
O        -0.0087712302        0.0019848529        0.0048588813
O         0.0025750647       -0.0002512753        0.0000353028
O        -0.0002438367       -0.0097659149        0.0031414438
O        -0.0038605830        0.0057941056       -0.0048938975
O         0.0045430969        0.0008638412       -0.0026748927
O        -0.0082178675       -0.0003476484        0.0038725757
O         0.0047764557       -0.0046352702        0.0016442964
O         0.0039550341        0.0033507592       -0.0032100635
O        -0.0062150569        0.0030788058       -0.0000695599
O         0.0009856751        0.0033112141        0.0049772991
O        -0.0030028131       -0.0089138022        0.0065685224
O        -0.0002031965       -0.0026489729        0.0027404327
O         0.0093425318       -0.0028362597        0.0005173782
O        -0.0078485166       -0.0017137359       -0.0013880725
O         0.0024265563       -0.0006256147        0.0032313027
O        -0.0016504418       -0.0105526452        0.0037551383
O        -0.0041844492        0.0025658844        0.0061760020
O        -0.0042258655        0.0004141217        0.0004708665
O         0.0011886116       -0.0002955630       -0.0194811694
O         0.0019318627       -0.0010629793        0.0033691660
O         0.0038328403        0.0029178756       -0.0029911416
O         0.0108076230        0.0000696161        0.0042981832
O        -0.0007207887        0.0052851562       -0.0055140212
O         0.0005360568        0.0010240545        0.0050151256
O        -0.0007585538        0.0045788528        0.0007709100
O         0.0004034162       -0.0113721576        0.0022169532
O         0.0020225571       -0.0033734087        0.0020802698
O         0.0071854347        0.0040849576       -0.0007344157
O         0.0027492562        0.0024406948        0.0016445007
O         0.0028741831       -0.0025796483       -0.0059721462
O        -0.0005586450        0.0109983192       -0.0054935613
O         0.0038999869       -0.0001716100        0.0017572464
O         0.0077387615        0.0013804714       -0.0076925159
O         0.0008207947        0.0003075300       -0.0024083870
O         0.0007536671       -0.0058571528       -0.0026166811
O        -0.0002346618       -0.0063241828       -0.0040892518
O         0.0091520816       -0.0030944150        0.0060098121
O         0.0017847528       -0.0031767770        0.0003969043
O        -0.0005355213       -0.0034141000       -0.0007399871
O        -0.0028641934       -0.0075318252       -0.0014816276
O        -0.0028820090        0.0055877382        0.0040643285
O        -0.0038005041       -0.0004829816        0.0023823425
O         0.0037368456       -0.0008179675        0.0034707453
O        -0.0001645632       -0.0008404680       -0.0015255811
O         0.0002703386        0.0011967981       -0.0015142710
O         0.0136726129       -0.0046908069       -0.0036703205
O        -0.0001689478        0.0028159487        0.0044027497
O        -0.0035372476       -0.0023001252        0.0011874620
O         0.0031363089        0.0002034318        0.0001155439
O        -0.0062477810        0.0041620879        0.0066876458
O        -0.0009444409        0.0063914150        0.0016890535
O        -0.0040800946        0.0035614977       -0.0021599970
O         0.0030211702        0.0006410700       -0.0073169206
O        -0.0038333669        0.0102187517        0.0007522902
O        -0.0039825153        0.0029427780        0.0007161091
O        -0.0003629564       -0.0091096448       -0.0065373155
O         0.0105050690        0.0038410865        0.0014782301
O        -0.0011293354        0.0019345668        0.0014214117
O         0.0035464467        0.0001783973       -0.0033059661
O         0.0000729828       -0.0007405840        0.0012163239
O        -0.0081093027        0.0001010332       -0.0029182096
O         0.0000764968       -0.0002958929        0.0032981387
     192
 i =        3, E =     -5781.1343077124
Ti        -0.0022907490        0.0011675338        0.0024459160
Ti         0.0035894926       -0.0016226429       -0.0022885837
Ti        -0.0031897313       -0.0042565354       -0.0065085957
Ti         0.0004452501        0.0116683312        0.0008277319
Ti         0.0035976639        0.0013664166        0.0000422481
Ti        -0.0051278486        0.0040221488       -0.0037467447
Ti        -0.0034365888        0.0006680670       -0.0023432409
Ti         0.0002031141        0.0008811620        0.0035376439
Ti        -0.0042243442       -0.0029211925       -0.0014886117
Ti         0.0015782562       -0.0037990498       -0.0023525233
Ti        -0.0065226598       -0.0019635984       -0.0001597933
Ti         0.0018643184        0.0005081433       -0.0005466231
Ti         0.0058092307       -0.0057280596       -0.0035854633
Ti         0.0008263252        0.0064988329        0.0084823119
Ti        -0.0044829390        0.0013356893       -0.0017742081
Ti        -0.0015021553        0.0115648695       -0.0044367097
Ti        -0.0003050481        0.0016022947       -0.0042824536
Ti         0.0011063438        0.0053105032        0.0009943304
Ti         0.0084362323        0.0073159284       -0.0011773240
Ti         0.0026566889       -0.0050305074       -0.0057123694
Ti         0.0018308430        0.0000369489       -0.0064954697
Ti        -0.0044035558       -0.0075240710       -0.0030525717
Ti         0.0044498105        0.0022596519        0.0053255263
Ti        -0.0083692429        0.0068485672       -0.0023325785
Ti        -0.0042365778       -0.0011078286        0.0049255974
Ti        -0.0077863754        0.0000851611       -0.0006939318
Ti         0.0045975628        0.0031905171       -0.0011863567
Ti        -0.0011436732        0.0045719443        0.0008113591
Ti         0.0020546294        0.0069623148        0.0030408377
Ti         0.0026508602        0.0085092440        0.0046213915
Ti        -0.0011763086        0.0025888193        0.0027248925
Ti        -0.0051558769       -0.0001376063        0.0027456870
Ti         0.0081365704        0.0007423102       -0.0041667689
Ti        -0.0045833521        0.0036021154       -0.0027650631
Ti         0.0034603973       -0.0017670487       -0.0064756777
Ti         0.0146213205       -0.0059431489       -0.0059811073
Ti        -0.0001329380        0.0001628160        0.0027005093
Ti        -0.0034305160       -0.0000922794        0.0050069867
Ti        -0.0055705510        0.0040940808       -0.0039138342
Ti        -0.0023725803        0.0104163082       -0.0020962484
Ti        -0.0080008738        0.0021506161        0.0054667902
Ti         0.0034502405        0.0064515235        0.0005521961
Ti         0.0056113998        0.0019256259       -0.0048941303
Ti        -0.0011800831        0.0053848087        0.0015040808
Ti         0.0004902774       -0.0041501064       -0.0059696645
Ti        -0.0044116110       -0.0017724117       -0.0018901442
Ti         0.0081228449        0.0024608025       -0.0045854444
Ti         0.0028928167        0.0078770573       -0.0008739225
Ti        -0.0014635992        0.0073662743        0.0063086090
Ti        -0.0025099378        0.0030412034       -0.0005229254
Ti        -0.0039179149        0.0066925882        0.0038353901
Ti        -0.0054128306       -0.0048341914        0.0020063932
Ti         0.0024998156        0.0011684246       -0.0022442754
Ti         0.0019493230       -0.0034638376       -0.0012696790
Ti        -0.0003580047       -0.0028701660        0.0032377702
Ti         0.0025734529        0.0045257343       -0.0011548343
Ti        -0.0023993617        0.0011477583       -0.0014484250
Ti         0.0060854295       -0.0117247384        0.0001365062
Ti         0.0022725772        0.0049561546        0.0040190849
Ti        -0.0042614746       -0.0016831606        0.0027437623
Ti        -0.0036196789        0.0013499327        0.0041495919
Ti        -0.0022143597       -0.0096725036        0.0013120054
Ti         0.0037024101        0.0009366730        0.0020477972
Ti        -0.0046096016        0.0050413954       -0.0008884291
O        -0.0008383515        0.0029918187        0.0028413625
O         0.0029099291       -0.0027034749        0.0043524461
O        -0.0044602416        0.0004232876        0.0038808861
O         0.0018786287        0.0020407308        0.0014284784
O         0.0021152050        0.0001717755       -0.0028537665
O         0.0013264883       -0.0036606114        0.0028363973
O         0.0030164749       -0.0018245193        0.0035565222
O         0.0048264283        0.0005871151       -0.0006563779
O         0.0030297579       -0.0056450055       -0.0012450503
O        -0.0027189094       -0.0040831627       -0.0010754909
O         0.0016323434        0.0002266960        0.0029061583
O         0.0029087206       -0.0010064008       -0.0009701250
O        -0.0038741248       -0.0013472823        0.0025695378
O        -0.0020988583       -0.0023605236       -0.0030339789
O         0.0034861516       -0.0050387779        0.0008461156
O         0.0035087349       -0.0010890974        0.0015838030
O         0.0005989121        0.0012899474       -0.0007031615
O         0.0037078736       -0.0009042519       -0.0024628894
O        -0.0030372493        0.0013884612        0.0009290994
O         0.0042598747        0.0038562717        0.0029676767
O         0.0014154132        0.0011404899        0.0033833900
O         0.0037101033       -0.0021828018        0.0052396278