 DBCSR| CPU Multiplication driver                                           XSMM (U)
 DBCSR| Multrec recursion limit                                              512 (U)
 DBCSR| Multiplication stack size                                           1000 (D)
 DBCSR| Maximum elements for images                                    UNLIMITED (U)
 DBCSR| Multiplicative factor virtual images                                   1 (U)
 DBCSR| Use multiplication densification                                       T (D)
 DBCSR| Multiplication size stacks                                             3 (U)
 DBCSR| Use memory pool for CPU allocation                                     F (U)
 DBCSR| Number of 3D layers                                               SINGLE (U)
 DBCSR| Use MPI memory allocation                                              F (U)
 DBCSR| Use RMA algorithm                                                      F (U)
 DBCSR| Use Communication thread                                               T (U)
 DBCSR| Communication thread load                                             87 (D)
 DBCSR| MPI: My process id                                                     0
 DBCSR| MPI: Number of processes                                             128
 DBCSR| OMP: Current number of threads                                         1
 DBCSR| OMP: Max number of threads                                             1
 DBCSR| Split modifier for TAS multiplication algorithm                  1.0E+00 (U)


  **** **** ******  **  PROGRAM STARTED AT               2025-06-16 15:18:08.470
 ***** ** ***  *** **   PROGRAM STARTED ON                             nid004415
 **    ****   ******    PROGRAM STARTED BY                                cahart
 ***** **    ** ** **   PROGRAM PROCESS ID                                120610
  **** **  *******  **  PROGRAM STARTED IN /mnt/lustre/a2fs-work2/work/e05/e05/c
                                           ahart/postdoc2/work/group/tio2/anatas
                                           e/cell-441/geo-opt/mp-390/hole/from-n
                                           eutral/pbe-u-o/u-3.0

 CP2K| version string:                                       CP2K version 2024.3
 CP2K| source code revision number:                                  git:6712648
 CP2K| cp2kflags: omp libint fftw3 libxc libgrpp elpa parallel scalapack cosma x
 CP2K|            smm plumed2 spglib mkl sirius libvori libbqb libvdwxc hdf5
 CP2K| is freely available from                            https://www.cp2k.org/
 CP2K| Program compiled at                       Thu 12 Sep 2024 10:20:47 AM BST
 CP2K| Program compiled on                                                  ln04
 CP2K| Program compiled for                                                local
 CP2K| Data directory path    /mnt/lustre/a2fs-work1/work/y07/shared/apps/core/c
 CP2K| Input file name                                                 input.inp

 GLOBAL| Force Environment number                                              1
 GLOBAL| Basis set file name                                        BASIS_MOLOPT
 GLOBAL| Potential file name                                      GTH_POTENTIALS
 GLOBAL| MM Potential file name                                     MM_POTENTIAL
 GLOBAL| Coordinate file name                                         system.xyz
 GLOBAL| Method name                                                        CP2K
 GLOBAL| Project name                                                       tio2
 GLOBAL| Run type                                                        GEO_OPT
 GLOBAL| FFT library                                                       FFTW3
 GLOBAL| Diagonalization library                                            ELPA
 GLOBAL| DGEMM library                                                      BLAS
 GLOBAL| Minimum number of eigenvectors for ELPA usage                        16
 GLOBAL| Orthonormality check for eigenvectors                          DISABLED
 GLOBAL| Matrix multiplication library                                     COSMA
 GLOBAL| All-to-all communication in single precision                          F
 GLOBAL| FFTs using library dependent lengths                                  F
 GLOBAL| Grid backend                                                       AUTO
 GLOBAL| Global print level                                               MEDIUM
 GLOBAL| MPI I/O enabled                                                       T
 GLOBAL| Total number of message passing processes                           128
 GLOBAL| Number of threads for this process                                    1
 GLOBAL| This output is from process                                           0
 GLOBAL| Stack size for threads created by OpenMP (OMP_STACKSIZE)        default
 GLOBAL| CPU model name                          AMD EPYC 7742 64-Core Processor
 GLOBAL| CPUID                                                              1002

 MEMORY| system memory details [Kb]
 MEMORY|                        rank 0           min           max       average
 MEMORY| MemTotal            263341976     263341976     263341976     263341976
 MEMORY| MemFree             236150260     236150260     236151016     236150372
 MEMORY| Buffers                     0             0             0             0
 MEMORY| Cached                1613756       1612732       1613756       1613604
 MEMORY| Slab                  5144864       5144776       5144864       5144850
 MEMORY| SReclaimable           113540        113520        113540        113537
 MEMORY| MemLikelyFree       237877556     237877268     237877556     237877513


 *** Fundamental physical constants (SI units) ***

 *** Literature: B. J. Mohr and B. N. Taylor,
 ***             CODATA recommended values of the fundamental physical
 ***             constants: 2006, Web Version 5.1
 ***             http://physics.nist.gov/constants

 Speed of light in vacuum [m/s]                             2.99792458000000E+08
 Magnetic constant or permeability of vacuum [N/A**2]       1.25663706143592E-06
 Electric constant or permittivity of vacuum [F/m]          8.85418781762039E-12
 Planck constant (h) [J*s]                                  6.62606896000000E-34
 Planck constant (h-bar) [J*s]                              1.05457162825177E-34
 Elementary charge [C]                                      1.60217648700000E-19
 Electron mass [kg]                                         9.10938215000000E-31
 Electron g factor [ ]                                     -2.00231930436220E+00
 Proton mass [kg]                                           1.67262163700000E-27
 Fine-structure constant                                    7.29735253760000E-03
 Rydberg constant [1/m]                                     1.09737315685270E+07
 Avogadro constant [1/mol]                                  6.02214179000000E+23
 Boltzmann constant [J/K]                                   1.38065040000000E-23
 Atomic mass unit [kg]                                      1.66053878200000E-27
 Bohr radius [m]                                            5.29177208590000E-11

 *** Conversion factors ***

 [u] -> [a.u.]                                              1.82288848426455E+03
 [Angstrom] -> [Bohr] = [a.u.]                              1.88972613288564E+00
 [a.u.] = [Bohr] -> [Angstrom]                              5.29177208590000E-01
 [a.u.] -> [s]                                              2.41888432650478E-17
 [a.u.] -> [fs]                                             2.41888432650478E-02
 [a.u.] -> [J]                                              4.35974393937059E-18
 [a.u.] -> [N]                                              8.23872205491840E-08
 [a.u.] -> [K]                                              3.15774647902944E+05
 [a.u.] -> [kJ/mol]                                         2.62549961709828E+03
 [a.u.] -> [kcal/mol]                                       6.27509468713739E+02
 [a.u.] -> [Pa]                                             2.94210107994716E+13
 [a.u.] -> [bar]                                            2.94210107994716E+08
 [a.u.] -> [atm]                                            2.90362800883016E+08
 [a.u.] -> [eV]                                             2.72113838565563E+01
 [a.u.] -> [Hz]                                             6.57968392072181E+15
 [a.u.] -> [1/cm] (wave numbers)                            2.19474631370540E+05
 [a.u./Bohr**2] -> [1/cm]                                   5.14048714338585E+03
 

 CELL_TOP| Volume [angstrom^3]:                                      2198.132028
 CELL_TOP| Vector a [angstrom    15.120     0.000     0.000   |a| =    15.120000
 CELL_TOP| Vector b [angstrom     0.000    15.120     0.000   |b| =    15.120000
 CELL_TOP| Vector c [angstrom     0.000     0.000     9.615   |c| =     9.615020
 CELL_TOP| Angle (b,c), alpha [degree]:                                90.000000
 CELL_TOP| Angle (a,c), beta  [degree]:                                90.000000
 CELL_TOP| Angle (a,b), gamma [degree]:                                90.000000
 CELL_TOP| Requested initial symmetry:                       MONOCLINIC_GAMMA_AB
 CELL_TOP| Numerically orthorhombic:                                         YES
 CELL_TOP| Periodicity                                                       XYZ

 *** WARNING in atoms_input.F:123 :: Overwriting coordinates. Active    ***
 *** coordinates read from &COORD section. Active coordinates READ from ***
 *** &COORD section                                                     ***


 GENERATE|  Preliminary Number of Bonds generated:                             0
 GENERATE|  Achieved consistency in connectivity generation.

 CELL| Volume [angstrom^3]:                                          2198.132028
 CELL| Vector a [angstrom]:      15.120     0.000     0.000   |a| =    15.120000
 CELL| Vector b [angstrom]:       0.000    15.120     0.000   |b| =    15.120000
 CELL| Vector c [angstrom]:       0.000     0.000     9.615   |c| =     9.615020
 CELL| Angle (b,c), alpha [degree]:                                    90.000000
 CELL| Angle (a,c), beta  [degree]:                                    90.000000
 CELL| Angle (a,b), gamma [degree]:                                    90.000000
 CELL| Requested initial symmetry:                           MONOCLINIC_GAMMA_AB
 CELL| Numerically orthorhombic:                                             YES
 CELL| Periodicity                                                           XYZ

 CELL_REF| Volume [angstrom^3]:                                      2198.132028
 CELL_REF| Vector a [angstrom    15.120     0.000     0.000   |a| =    15.120000
 CELL_REF| Vector b [angstrom     0.000    15.120     0.000   |b| =    15.120000
 CELL_REF| Vector c [angstrom     0.000     0.000     9.615   |c| =     9.615020
 CELL_REF| Angle (b,c), alpha [degree]:                                90.000000
 CELL_REF| Angle (a,c), beta  [degree]:                                90.000000
 CELL_REF| Angle (a,b), gamma [degree]:                                90.000000
 CELL_REF| Requested initial symmetry:                       MONOCLINIC_GAMMA_AB
 CELL_REF| Numerically orthorhombic:                                         YES
 CELL_REF| Periodicity                                                       XYZ

 *******************************************************************************
 *******************************************************************************
 **                                                                           **
 **     #####                         ##              ##                      **
 **    ##   ##            ##          ##              ##                      **
 **   ##     ##                       ##            ######                    **
 **   ##     ##  ##   ##  ##   #####  ##  ##   ####   ##    #####    #####    **
 **   ##     ##  ##   ##  ##  ##      ## ##   ##      ##   ##   ##  ##   ##   **
 **   ##  ## ##  ##   ##  ##  ##      ####     ###    ##   ######   ######    **
 **    ##  ###   ##   ##  ##  ##      ## ##      ##   ##   ##       ##        **
 **     #######   #####   ##   #####  ##  ##  ####    ##    #####   ##        **
 **           ##                                                    ##        **
 **                                                                           **
 **                                                ... make the atoms dance   **
 **                                                                           **
 **            Copyright (C) by CP2K developers group (2000-2024)             **
 **                      J. Chem. Phys. 152, 194103 (2020)                    **
 **                                                                           **
 *******************************************************************************

 DFT| Spin unrestricted (spin-polarized) Kohn-Sham calculation               UKS
 DFT| Multiplicity                                                             2
 DFT| Number of spin states                                                    2
 DFT| Charge                                                                   1
 DFT| Self-interaction correction (SIC)                                       NO
 DFT| Cutoffs: density                                              1.000000E-10
 DFT|          gradient                                             1.000000E-10
 DFT|          tau                                                  1.000000E-10
 DFT|          cutoff_smoothing_range                               0.000000E+00
 DFT| XC density smoothing                                                  NONE
 DFT| XC derivatives                                                          PW

 DFT+U| Method                                                          MULLIKEN
 DFT+U| Check atomic kind information for details

 FUNCTIONAL| PBE:
 FUNCTIONAL| J.P.Perdew, K.Burke, M.Ernzerhof, Phys. Rev. Letter, vol. 77, n 18,
 FUNCTIONAL|  pp. 3865-3868, (1996) {spin polarized}                            


 QS| Method:                                                                 GPW
 QS| Density plane wave grid type                        NON-SPHERICAL FULLSPACE
 QS| Number of grid levels:                                                    4
 QS| Density cutoff [a.u.]:                                                300.0
 QS| Multi grid cutoff [a.u.]: 1) grid level                               300.0
 QS|                           2) grid level                               100.0
 QS|                           3) grid level                                33.3
 QS|                           4) grid level                                11.1
 QS| Grid level progression factor:                                          3.0
 QS| Relative density cutoff [a.u.]:                                        20.0
 QS| Interaction thresholds: eps_pgf_orb:                                1.0E-06
 QS|                         eps_filter_matrix:                          0.0E+00
 QS|                         eps_core_charge:                            1.0E-14
 QS|                         eps_rho_gspace:                             1.0E-12
 QS|                         eps_rho_rspace:                             1.0E-12
 QS|                         eps_gvg_rspace:                             1.0E-06
 QS|                         eps_ppl:                                    1.0E-02
 QS|                         eps_ppnl:                                   1.0E-08


 ATOMIC KIND INFORMATION

  1. Atomic kind: Ti                                    Number of atoms:      64

     Orbital Basis Set                                    DZVP-MOLOPT-SR-GTH-q12

       Number of orbital shell sets:                                           1
       Number of orbital shells:                                               8
       Number of primitive Cartesian functions:                                6
       Number of Cartesian basis functions:                                   31
       Number of spherical basis functions:                                   26
       Norm type:                                                              2

       Normalised Cartesian orbitals:

                        Set   Shell   Orbital            Exponent    Coefficient

                          1       1    2s                7.884570       0.015554
                                                         3.894698       0.963603
                                                         1.513589      -0.631435
                                                         0.596768      -0.343022
                                                         0.222222      -0.006534
                                                         0.077078       0.007652

                          1       2    3s                7.884570      -0.009340
                                                         3.894698       0.212624
                                                         1.513589      -0.258368
                                                         0.596768      -0.226206
                                                         0.222222       0.039438
                                                         0.077078       0.107179

                          1       3    4s                7.884570       0.276563
                                                         3.894698       0.105452
                                                         1.513589       0.085149
                                                         0.596768       0.882541
                                                         0.222222      -0.696223
                                                         0.077078       0.156638

                          1       4    3px               7.884570      -2.034794
                                                         3.894698       0.782008
                                                         1.513589       1.253903
                                                         0.596768       0.347823
                                                         0.222222       0.016778
                                                         0.077078      -0.000433
                          1       4    3py               7.884570      -2.034794
                                                         3.894698       0.782008
                                                         1.513589       1.253903
                                                         0.596768       0.347823
                                                         0.222222       0.016778
                                                         0.077078      -0.000433
                          1       4    3pz               7.884570      -2.034794
                                                         3.894698       0.782008
                                                         1.513589       1.253903
                                                         0.596768       0.347823
                                                         0.222222       0.016778
                                                         0.077078      -0.000433

                          1       5    4px               7.884570       0.376572
                                                         3.894698      -0.182875
                                                         1.513589      -0.474776
                                                         0.596768      -0.081757
                                                         0.222222       0.064432
                                                         0.077078       0.047279
                          1       5    4py               7.884570       0.376572
                                                         3.894698      -0.182875
                                                         1.513589      -0.474776
                                                         0.596768      -0.081757
                                                         0.222222       0.064432
                                                         0.077078       0.047279
                          1       5    4pz               7.884570       0.376572
                                                         3.894698      -0.182875
                                                         1.513589      -0.474776
                                                         0.596768      -0.081757
                                                         0.222222       0.064432
                                                         0.077078       0.047279

                          1       6    4dx2              7.884570       3.047350
                                                         3.894698       3.289529
                                                         1.513589       1.060616
                                                         0.596768       0.249930
                                                         0.222222       0.038806
                                                         0.077078       0.002319
                          1       6    4dxy              7.884570       5.278165
                                                         3.894698       5.697631
                                                         1.513589       1.837041
                                                         0.596768       0.432892
                                                         0.222222       0.067214
                                                         0.077078       0.004017
                          1       6    4dxz              7.884570       5.278165
                                                         3.894698       5.697631
                                                         1.513589       1.837041
                                                         0.596768       0.432892
                                                         0.222222       0.067214
                                                         0.077078       0.004017
                          1       6    4dy2              7.884570       3.047350
                                                         3.894698       3.289529
                                                         1.513589       1.060616
                                                         0.596768       0.249930
                                                         0.222222       0.038806
                                                         0.077078       0.002319
                          1       6    4dyz              7.884570       5.278165
                                                         3.894698       5.697631
                                                         1.513589       1.837041
                                                         0.596768       0.432892
                                                         0.222222       0.067214
                                                         0.077078       0.004017
                          1       6    4dz2              7.884570       3.047350
                                                         3.894698       3.289529
                                                         1.513589       1.060616
                                                         0.596768       0.249930
                                                         0.222222       0.038806
                                                         0.077078       0.002319

                          1       7    5dx2              7.884570      -2.119015
                                                         3.894698      -1.237751
                                                         1.513589      -0.746777
                                                         0.596768      -0.071514
                                                         0.222222       0.004086
                                                         0.077078       0.017595
                          1       7    5dxy              7.884570      -3.670241
                                                         3.894698      -2.143848
                                                         1.513589      -1.293455
                                                         0.596768      -0.123865
                                                         0.222222       0.007077
                                                         0.077078       0.030475
                          1       7    5dxz              7.884570      -3.670241
                                                         3.894698      -2.143848
                                                         1.513589      -1.293455
                                                         0.596768      -0.123865
                                                         0.222222       0.007077
                                                         0.077078       0.030475
                          1       7    5dy2              7.884570      -2.119015
                                                         3.894698      -1.237751
                                                         1.513589      -0.746777
                                                         0.596768      -0.071514
                                                         0.222222       0.004086
                                                         0.077078       0.017595
                          1       7    5dyz              7.884570      -3.670241
                                                         3.894698      -2.143848
                                                         1.513589      -1.293455
                                                         0.596768      -0.123865
                                                         0.222222       0.007077
                                                         0.077078       0.030475
                          1       7    5dz2              7.884570      -2.119015
                                                         3.894698      -1.237751
                                                         1.513589      -0.746777
                                                         0.596768      -0.071514
                                                         0.222222       0.004086
                                                         0.077078       0.017595

                          1       8    5fx3              7.884570      -0.342058
                                                         3.894698       0.375798
                                                         1.513589      -0.706469
                                                         0.596768      -0.229994
                                                         0.222222      -0.012723
                                                         0.077078       0.003932
                          1       8    5fx2y             7.884570      -0.764866
                                                         3.894698       0.840310
                                                         1.513589      -1.579712
                                                         0.596768      -0.514282
                                                         0.222222      -0.028450
                                                         0.077078       0.008792
                          1       8    5fx2z             7.884570      -0.764866
                                                         3.894698       0.840310
                                                         1.513589      -1.579712
                                                         0.596768      -0.514282
                                                         0.222222      -0.028450
                                                         0.077078       0.008792
                          1       8    5fxy2             7.884570      -0.764866
                                                         3.894698       0.840310
                                                         1.513589      -1.579712
                                                         0.596768      -0.514282
                                                         0.222222      -0.028450
                                                         0.077078       0.008792
                          1       8    5fxyz             7.884570      -1.324787
                                                         3.894698       1.455460
                                                         1.513589      -2.736142
                                                         0.596768      -0.890763
                                                         0.222222      -0.049276
                                                         0.077078       0.015229
                          1       8    5fxz2             7.884570      -0.764866
                                                         3.894698       0.840310
                                                         1.513589      -1.579712
                                                         0.596768      -0.514282
                                                         0.222222      -0.028450
                                                         0.077078       0.008792
                          1       8    5fy3              7.884570      -0.342058
                                                         3.894698       0.375798
                                                         1.513589      -0.706469
                                                         0.596768      -0.229994
                                                         0.222222      -0.012723
                                                         0.077078       0.003932
                          1       8    5fy2z             7.884570      -0.764866
                                                         3.894698       0.840310
                                                         1.513589      -1.579712
                                                         0.596768      -0.514282
                                                         0.222222      -0.028450
                                                         0.077078       0.008792
                          1       8    5fyz2             7.884570      -0.764866
                                                         3.894698       0.840310
                                                         1.513589      -1.579712
                                                         0.596768      -0.514282
                                                         0.222222      -0.028450
                                                         0.077078       0.008792
                          1       8    5fz3              7.884570      -0.342058
                                                         3.894698       0.375798
                                                         1.513589      -0.706469
                                                         0.596768      -0.229994
                                                         0.222222      -0.012723
                                                         0.077078       0.003932

       Atomic covalent radius [Angstrom]:                                  1.320

       Atomic van der Waals radius [Angstrom]:                             1.760

     GTH Potential information for                                   GTH-PBE-q12

       Description:                       Goedecker-Teter-Hutter pseudopotential
                                           Goedecker et al., PRB 54, 1703 (1996)
                                          Hartwigsen et al., PRB 58, 3641 (1998)
                                                      Krack, TCA 114, 145 (2005)

       Gaussian exponent of the core charge distribution:               3.462604
       Electronic configuration (s p d ...):                           4   6   2

       Parameters of the local part of the GTH pseudopotential:

                          rloc        C1          C2          C3          C4
                        0.380000    8.711442   -0.700287

       Parameters of the non-local part of the GTH pseudopotential:

                   l      r(l)      h(i,j,l)

                   0    0.337771    2.575264    3.692971
                                    3.692971   -4.767605
                   1    0.242531   -4.630541    8.870875
                                    8.870875  -10.496161
                   2    0.243317   -9.406653

  2. Atomic kind: O                                     Number of atoms:     128

     Orbital Basis Set                                     DZVP-MOLOPT-SR-GTH-q6

       Number of orbital shell sets:                                           1
       Number of orbital shells:                                               5
       Number of primitive Cartesian functions:                                5
       Number of Cartesian basis functions:                                   14
       Number of spherical basis functions:                                   13
       Norm type:                                                              2

       Normalised Cartesian orbitals:

                        Set   Shell   Orbital            Exponent    Coefficient

                          1       1    2s               10.389228       0.396646
                                                         3.849621       0.208811
                                                         1.388401      -0.301641
                                                         0.496955      -0.274061
                                                         0.162492      -0.033677

                          1       2    3s               10.389228       0.303673
                                                         3.849621       0.240943
                                                         1.388401      -0.313066
                                                         0.496955      -0.043055
                                                         0.162492       0.213991

                          1       3    3px              10.389228      -1.530415
                                                         3.849621      -1.371928
                                                         1.388401      -0.761951
                                                         0.496955      -0.253695
                                                         0.162492      -0.035541
                          1       3    3py              10.389228      -1.530415
                                                         3.849621      -1.371928
                                                         1.388401      -0.761951
                                                         0.496955      -0.253695
                                                         0.162492      -0.035541
                          1       3    3pz              10.389228      -1.530415
                                                         3.849621      -1.371928
                                                         1.388401      -0.761951
                                                         0.496955      -0.253695
                                                         0.162492      -0.035541

                          1       4    4px              10.389228      -0.565392
                                                         3.849621      -0.038231
                                                         1.388401      -0.382373
                                                         0.496955       0.179070
                                                         0.162492       0.122714
                          1       4    4py              10.389228      -0.565392
                                                         3.849621      -0.038231
                                                         1.388401      -0.382373
                                                         0.496955       0.179070
                                                         0.162492       0.122714
                          1       4    4pz              10.389228      -0.565392
                                                         3.849621      -0.038231
                                                         1.388401      -0.382373
                                                         0.496955       0.179070
                                                         0.162492       0.122714

                          1       5    4dx2             10.389228       1.867377
                                                         3.849621       0.670994
                                                         1.388401       1.353441
                                                         0.496955       0.273538
                                                         0.162492       0.006620
                          1       5    4dxy             10.389228       3.234392
                                                         3.849621       1.162195
                                                         1.388401       2.344229
                                                         0.496955       0.473781
                                                         0.162492       0.011466
                          1       5    4dxz             10.389228       3.234392
                                                         3.849621       1.162195
                                                         1.388401       2.344229
                                                         0.496955       0.473781
                                                         0.162492       0.011466
                          1       5    4dy2             10.389228       1.867377
                                                         3.849621       0.670994
                                                         1.388401       1.353441
                                                         0.496955       0.273538
                                                         0.162492       0.006620
                          1       5    4dyz             10.389228       3.234392
                                                         3.849621       1.162195
                                                         1.388401       2.344229
                                                         0.496955       0.473781
                                                         0.162492       0.011466
                          1       5    4dz2             10.389228       1.867377
                                                         3.849621       0.670994
                                                         1.388401       1.353441
                                                         0.496955       0.273538
                                                         0.162492       0.006620

       Atomic covalent radius [Angstrom]:                                  0.730

       Atomic van der Waals radius [Angstrom]:                             1.520

     GTH Potential information for                                    GTH-PBE-q6

       Description:                       Goedecker-Teter-Hutter pseudopotential
                                           Goedecker et al., PRB 54, 1703 (1996)
                                          Hartwigsen et al., PRB 58, 3641 (1998)
                                                      Krack, TCA 114, 145 (2005)

       Gaussian exponent of the core charge distribution:               8.360253
       Electronic configuration (s p d ...):                               2   4

       Parameters of the local part of the GTH pseudopotential:

                          rloc        C1          C2          C3          C4
                        0.244554  -16.667215    2.487311

       Parameters of the non-local part of the GTH pseudopotential:

                   l      r(l)      h(i,j,l)

                   0    0.220956   18.337458
                   1    0.211332

     A DFT+U correction is applied to atoms of this atomic kind:
       Angular quantum momentum number L:                                      1
       U(eff) = (U - J) value in [eV]:                                     3.000


 MOLECULE KIND INFORMATION


 All atoms are their own molecule, skipping detailed information


 TOTAL NUMBERS AND MAXIMUM NUMBERS

  Total number of            - Atomic kinds:                                   2
                             - Atoms:                                        192
                             - Shell sets:                                   192
                             - Shells:                                      1152
                             - Primitive Cartesian functions:               1024
                             - Cartesian basis functions:                   3776
                             - Spherical basis functions:                   3328

  Maximum angular momentum of- Orbital basis functions:                        3
                             - Local part of the GTH pseudopotential:          2
                             - Non-local part of the GTH pseudopotential:      3


 MODULE QUICKSTEP: ATOMIC COORDINATES IN ANGSTROM

   Atom Kind Element         X             Y             Z       Z(eff)     Mass
      1    1 Ti   22      0.000810      0.000800     -0.000000  12.0000  47.8670
      2    1 Ti   22      1.888370      1.888377      4.807507  12.0000  47.8670
      3    1 Ti   22      0.000791      1.888361      2.402073  12.0000  47.8670
      4    1 Ti   22      1.888373      0.000789      7.212944  12.0000  47.8670
      5    1 Ti   22      0.000804      3.776017      0.003051  12.0000  47.8670
      6    1 Ti   22      1.888386     13.237832      4.805778  12.0000  47.8670
      7    1 Ti   22     11.350315      1.888364      2.403682  12.0000  47.8670
      8    1 Ti   22      5.669319      0.000827      7.216994  12.0000  47.8670
      9    1 Ti   22      1.888394      3.776028      7.209872  12.0000  47.8670
     10    1 Ti   22      0.000811     13.237798      2.403812  12.0000  47.8670
     11    1 Ti   22      5.669339      1.888462      4.803435  12.0000  47.8670
     12    1 Ti   22     11.350299      0.000782     -0.001617  12.0000  47.8670
     13    1 Ti   22      3.776022      0.000811     -0.003045  12.0000  47.8670
     14    1 Ti   22     13.237830      1.888381      4.809241  12.0000  47.8670
     15    1 Ti   22     13.237810      0.000811      7.211220  12.0000  47.8670
     16    1 Ti   22      3.776032      1.888401      2.405147  12.0000  47.8670
     17    1 Ti   22      1.888460      5.669344      4.811582  12.0000  47.8670
     18    1 Ti   22      0.000783     11.350306      0.001610  12.0000  47.8670
     19    1 Ti   22      0.000828      5.669319      2.398019  12.0000  47.8670
     20    1 Ti   22      1.888369     11.350309      7.211336  12.0000  47.8670
     21    1 Ti   22      0.000827      7.569724      0.005684  12.0000  47.8670
     22    1 Ti   22      1.888413      9.462850      4.808805  12.0000  47.8670
     23    1 Ti   22      7.569720      1.888450      2.407779  12.0000  47.8670
     24    1 Ti   22      9.462840      0.000805      7.214225  12.0000  47.8670
     25    1 Ti   22      1.888449      7.569713      7.207244  12.0000  47.8670
     26    1 Ti   22      0.000807      9.462841      2.400800  12.0000  47.8670
     27    1 Ti   22      9.462849      1.888418      4.806214  12.0000  47.8670
     28    1 Ti   22      7.569718      0.000829     -0.005682  12.0000  47.8670
     29    1 Ti   22      3.776056      3.776064     -0.000002  12.0000  47.8670
     30    1 Ti   22     13.237819     13.237823      4.807518  12.0000  47.8670
     31    1 Ti   22     11.350233      5.669334      2.399612  12.0000  47.8670
     32    1 Ti   22      5.669338     11.350220      7.215406  12.0000  47.8670
     33    1 Ti   22     13.237802      3.776027      7.208176  12.0000  47.8670
     34    1 Ti   22      3.776031     13.237802      2.406852  12.0000  47.8670
     35    1 Ti   22      5.669341      5.669346      4.807506  12.0000  47.8670
     36    1 Ti   22     11.350307     11.350311     -0.000000  12.0000  47.8670
     37    1 Ti   22     11.350311     13.237823      2.405422  12.0000  47.8670
     38    1 Ti   22      5.669341      3.776126      7.213995  12.0000  47.8670
     39    1 Ti   22      3.776024     11.350283     -0.001460  12.0000  47.8670
     40    1 Ti   22     13.237795      5.669327      4.813290  12.0000  47.8670
     41    1 Ti   22      5.669334     13.237795      4.801734  12.0000  47.8670
     42    1 Ti   22     11.350270      3.776021      0.001458  12.0000  47.8670
     43    1 Ti   22     13.237825     11.350299      7.209602  12.0000  47.8670
     44    1 Ti   22      3.776125      5.669343      2.401024  12.0000  47.8670
     45    1 Ti   22      3.776121      7.569702      0.002678  12.0000  47.8670
     46    1 Ti   22     13.237819      9.462851      4.810512  12.0000  47.8670
     47    1 Ti   22      7.569709      5.669337      2.403701  12.0000  47.8670
     48    1 Ti   22      9.462841     11.350273      7.212627  12.0000  47.8670
     49    1 Ti   22     13.237792      7.569724      7.205540  12.0000  47.8670
     50    1 Ti   22      3.776061      9.462801      2.403846  12.0000  47.8670
     51    1 Ti   22      9.462743      5.669361      4.810335  12.0000  47.8670
     52    1 Ti   22      7.569713     11.350241     -0.004088  12.0000  47.8670
     53    1 Ti   22     11.350279      9.462836      2.402385  12.0000  47.8670
     54    1 Ti   22      5.669335      7.569700      7.211315  12.0000  47.8670
     55    1 Ti   22      5.669359      9.462746      4.804679  12.0000  47.8670
     56    1 Ti   22     11.350231      7.569711      0.004084  12.0000  47.8670
     57    1 Ti   22      9.462796      3.776060      7.211169  12.0000  47.8670
     58    1 Ti   22      7.569730     13.237793      2.409484  12.0000  47.8670
     59    1 Ti   22      7.569692      3.776122     -0.002678  12.0000  47.8670
     60    1 Ti   22      9.462853     13.237829      4.804510  12.0000  47.8670
     61    1 Ti   22      7.569703      7.569709      0.000001  12.0000  47.8670
     62    1 Ti   22      9.462820      9.462822      4.807507  12.0000  47.8670
     63    1 Ti   22      7.569700      9.462742      2.406521  12.0000  47.8670
     64    1 Ti   22      9.462738      7.569700      7.208497  12.0000  47.8670
     65    2 O     8      0.000921      0.001576      1.991360   6.0000  15.9994
     66    2 O     8      1.884857      1.887539      6.799230   6.0000  15.9994
     67    2 O     8      0.001565      1.884823      4.395527   6.0000  15.9994
     68    2 O     8      1.887562      0.000915      9.202562   6.0000  15.9994
     69    2 O     8      1.884824      0.001564      5.219495   6.0000  15.9994
     70    2 O     8      0.000916      1.887561      0.412460   6.0000  15.9994
     71    2 O     8      1.887539      1.884859      2.815789   6.0000  15.9994
     72    2 O     8      0.001579      0.000920      7.623658   6.0000  15.9994
     73    2 O     8      0.000948      3.775977      1.989323   6.0000  15.9994
     74    2 O     8      1.884824     13.237012      6.799278   6.0000  15.9994
     75    2 O     8     11.351146      1.884854      4.395537   6.0000  15.9994
     76    2 O     8      5.672149      0.000892      9.203887   6.0000  15.9994
     77    2 O     8      1.884951      3.775942      5.221499   6.0000  15.9994
     78    2 O     8      0.000920     13.237000      0.412398   6.0000  15.9994
     79    2 O     8      5.672131      1.884948      2.814548   6.0000  15.9994
     80    2 O     8     11.351125      0.000914      7.623660   6.0000  15.9994
     81    2 O     8      3.775979      0.000948      7.625693   6.0000  15.9994
     82    2 O     8     13.237013      1.884824      2.815741   6.0000  15.9994
     83    2 O     8     13.237002      0.000920      9.202619   6.0000  15.9994
     84    2 O     8      3.775946      1.884953      4.393517   6.0000  15.9994
     85    2 O     8      1.884945      5.672121      6.800472   6.0000  15.9994
     86    2 O     8      0.000914     11.351126      1.991361   6.0000  15.9994
     87    2 O     8      0.000891      5.672153      0.411134   6.0000  15.9994
     88    2 O     8      1.884855     11.351145      5.219483   6.0000  15.9994
     89    2 O     8      0.000891      7.566942      1.992635   6.0000  15.9994
     90    2 O     8      1.884950      9.462867      6.797344   6.0000  15.9994
     91    2 O     8      7.566969      1.884944      4.396734   6.0000  15.9994
     92    2 O     8      9.462837      0.000947      9.200657   6.0000  15.9994
     93    2 O     8      1.884944      7.566965      5.218289   6.0000  15.9994
     94    2 O     8      0.000948      9.462834      0.414365   6.0000  15.9994
     95    2 O     8      9.462866      1.884951      2.817676   6.0000  15.9994
     96    2 O     8      7.566945      0.000892      7.622388   6.0000  15.9994
     97    2 O     8      3.769775      0.001566      1.991796   6.0000  15.9994
     98    2 O     8     13.237567      1.887561      6.798800   6.0000  15.9994
     99    2 O     8      0.001583      5.655892      4.395098   6.0000  15.9994
    100    2 O     8      1.887538     11.353699      9.202988   6.0000  15.9994
    101    2 O     8     13.237564      0.001579      5.219906   6.0000  15.9994
    102    2 O     8      3.769876      1.887578      0.412045   6.0000  15.9994
    103    2 O     8      1.887695      5.656142      2.816239   6.0000  15.9994
    104    2 O     8      0.001564     11.353730      7.623248   6.0000  15.9994
    105    2 O     8     11.353699      1.887539      0.412031   6.0000  15.9994
    106    2 O     8      5.655888      0.001584      5.219920   6.0000  15.9994
    107    2 O     8      5.656147      1.887694      6.798778   6.0000  15.9994
    108    2 O     8     11.353729      0.001564      1.991771   6.0000  15.9994
    109    2 O     8      1.887577      3.769876      9.202976   6.0000  15.9994
    110    2 O     8      0.001578     13.237562      4.395112   6.0000  15.9994
    111    2 O     8      0.001566      3.769775      7.623222   6.0000  15.9994
    112    2 O     8      1.887561     13.237567      2.816218   6.0000  15.9994
    113    2 O     8      3.770016      3.775973      1.989822   6.0000  15.9994
    114    2 O     8     13.237563     13.237003      6.798861   6.0000  15.9994
    115    2 O     8     11.350991      5.656118      4.395085   6.0000  15.9994
    116    2 O     8      5.672124     11.353614      9.204228   6.0000  15.9994
    117    2 O     8     13.237536      3.775979      5.221946   6.0000  15.9994
    118    2 O     8      3.769777     13.237010      0.411959   6.0000  15.9994
    119    2 O     8      5.672174      5.656553      2.814680   6.0000  15.9994
    120    2 O     8     11.351146     11.353701      7.623234   6.0000  15.9994
    121    2 O     8     11.353732     13.237010      0.411986   6.0000  15.9994
    122    2 O     8      5.656335      3.776090      5.221758   6.0000  15.9994
    123    2 O     8      3.775946     11.353606      7.625250   6.0000  15.9994
    124    2 O     8     13.236995      5.655904      2.816167   6.0000  15.9994
    125    2 O     8      5.655910     13.236998      6.798847   6.0000  15.9994
    126    2 O     8     11.353606      3.775942      1.989769   6.0000  15.9994
    127    2 O     8     13.237011     11.353731      9.203035   6.0000  15.9994
    128    2 O     8      3.776085      5.656338      4.393262   6.0000  15.9994
    129    2 O     8      5.656555      5.672180      6.800344   6.0000  15.9994
    130    2 O     8     11.353701     11.351147      1.991786   6.0000  15.9994
    131    2 O     8     13.237011      3.769774      9.203060   6.0000  15.9994
    132    2 O     8      3.775977     13.237538      4.393073   6.0000  15.9994
    133    2 O     8     11.353614      5.672123      0.410793   6.0000  15.9994
    134    2 O     8      5.656111     11.350991      5.219933   6.0000  15.9994
    135    2 O     8      3.775979      3.770017      7.625201   6.0000  15.9994
    136    2 O     8     13.237001     13.237562      2.816158   6.0000  15.9994
    137    2 O     8     13.237569     11.351124      5.219910   6.0000  15.9994
    138    2 O     8      3.770055      5.672108      0.410733   6.0000  15.9994
    139    2 O     8      5.672155     13.237589      2.814890   6.0000  15.9994
    140    2 O     8     11.351106      3.769869      7.623250   6.0000  15.9994
    141    2 O     8      3.769868     11.351110      1.991771   6.0000  15.9994
    142    2 O     8     13.237592      5.672150      6.800131   6.0000  15.9994
    143    2 O     8     11.351126     13.237569      4.395114   6.0000  15.9994
    144    2 O     8      5.672116      3.770055      9.204288   6.0000  15.9994
    145    2 O     8      3.770051      7.566979      1.993034   6.0000  15.9994
    146    2 O     8     13.237535      9.462835      6.796897   6.0000  15.9994
    147    2 O     8      7.566912      5.656532      4.396603   6.0000  15.9994
    148    2 O     8      9.462865     11.353611      9.201101   6.0000  15.9994
    149    2 O     8     13.237592      7.566938      5.218634   6.0000  15.9994
    150    2 O     8      3.770011      9.462833      0.413871   6.0000  15.9994
    151    2 O     8      9.462717      5.656340      2.817947   6.0000  15.9994
    152    2 O     8      7.566964     11.353615      7.622042   6.0000  15.9994
    153    2 O     8     11.353611      9.462868      0.413919   6.0000  15.9994
    154    2 O     8      5.656528      7.566905      5.218416   6.0000  15.9994
    155    2 O     8      5.656343      9.462716      6.797070   6.0000  15.9994
    156    2 O     8     11.353615      7.566968      1.992976   6.0000  15.9994
    157    2 O     8      9.462831      3.770012      9.201148   6.0000  15.9994
    158    2 O     8      7.566937     13.237594      4.396392   6.0000  15.9994
    159    2 O     8      7.566976      3.770055      7.621984   6.0000  15.9994
    160    2 O     8      9.462834     13.237536      2.818128   6.0000  15.9994
    161    2 O     8      7.582867      0.001580      1.991380   6.0000  15.9994
    162    2 O     8      9.468691      1.887577      6.799198   6.0000  15.9994
    163    2 O     8      0.001565      9.468784      4.395530   6.0000  15.9994
    164    2 O     8      1.887683      7.582643      9.202570   6.0000  15.9994
    165    2 O     8      9.468786      0.001566      5.219490   6.0000  15.9994
    166    2 O     8      7.582646      1.887683      0.412448   6.0000  15.9994
    167    2 O     8      1.887573      9.468689      2.815822   6.0000  15.9994
    168    2 O     8      0.001581      7.582868      7.623637   6.0000  15.9994
    169    2 O     8      7.582436      3.776078      1.989530   6.0000  15.9994
    170    2 O     8      9.468785     13.237012      6.799281   6.0000  15.9994
    171    2 O     8     11.351106      9.468697      4.395504   6.0000  15.9994
    172    2 O     8      5.672165      7.582246      9.204095   6.0000  15.9994
    173    2 O     8      9.468557      3.775972      5.221473   6.0000  15.9994
    174    2 O     8      7.582868     13.236999      0.412376   6.0000  15.9994
    175    2 O     8      5.672105      9.468526      2.814509   6.0000  15.9994
    176    2 O     8     11.351004      7.582657      7.623655   6.0000  15.9994
    177    2 O     8      3.776076      7.582436      7.625488   6.0000  15.9994
    178    2 O     8     13.237009      9.468784      2.815738   6.0000  15.9994
    179    2 O     8     13.236998      7.582867      9.202643   6.0000  15.9994
    180    2 O     8      3.775969      9.468554      4.393546   6.0000  15.9994
    181    2 O     8      9.468526      5.672114      6.800505   6.0000  15.9994
    182    2 O     8      7.582657     11.351006      1.991365   6.0000  15.9994
    183    2 O     8      7.582248      5.672172      0.410926   6.0000  15.9994
    184    2 O     8      9.468697     11.351107      5.219516   6.0000  15.9994
    185    2 O     8      7.582252      7.566921      1.992845   6.0000  15.9994
    186    2 O     8      9.468562      9.462839      6.797369   6.0000  15.9994
    187    2 O     8      7.566965      9.468529      4.396765   6.0000  15.9994
    188    2 O     8      9.462733      7.582447      9.200850   6.0000  15.9994
    189    2 O     8      9.468528      7.566984      5.218253   6.0000  15.9994
    190    2 O     8      7.582445      9.462731      0.414173   6.0000  15.9994
    191    2 O     8      9.462833      9.468562      2.817654   6.0000  15.9994
    192    2 O     8      7.566922      7.582256      7.622177   6.0000  15.9994



 SCF PARAMETERS         Density guess:                                   RESTART
                        --------------------------------------------------------
                        max_scf:                                              40
                        max_scf_history:                                       0
                        max_diis:                                              4
                        --------------------------------------------------------
                        eps_scf:                                        1.00E-06
                        eps_scf_history:                                0.00E+00
                        eps_diis:                                       1.00E-01
                        eps_eigval:                                     1.00E-05
                        --------------------------------------------------------
                        level_shift [a.u.]:                             0.000000
                        --------------------------------------------------------
                        Outer loop SCF in use 
                        No variables optimised in outer loop
                        eps_scf                                         1.00E-06
                        max_scf                                               60
                        No outer loop optimization
                        step_size                                       5.00E-01

 PW_GRID| Information for grid number                                          1
 PW_GRID| Grid distributed over                                   128 processors
 PW_GRID| Real space group dimensions                                   128    1
 PW_GRID| the grid is blocked:                                                NO
 PW_GRID| Cutoff [a.u.]                                                    300.0
 PW_GRID| spherical cutoff:                                                   NO
 PW_GRID|   Bounds   1           -112     112                Points:         225
 PW_GRID|   Bounds   2           -112     112                Points:         225
 PW_GRID|   Bounds   3            -72      71                Points:         144
 PW_GRID| Volume element (a.u.^3)  0.2035E-02     Volume (a.u.^3)     14833.7304
 PW_GRID| Grid span                                                    FULLSPACE
 PW_GRID|   Distribution                         Average         Max         Min
 PW_GRID|   G-Vectors                            56953.1       57150       56925
 PW_GRID|   G-Rays                                 253.1         254         253
 PW_GRID|   Real Space Points                    56953.1       64800       32400

 PW_GRID| Information for grid number                                          2
 PW_GRID| Number of the reference grid                                         1
 PW_GRID| Grid distributed over                                   128 processors
 PW_GRID| Real space group dimensions                                   128    1
 PW_GRID| the grid is blocked:                                                NO
 PW_GRID| Cutoff [a.u.]                                                    100.0
 PW_GRID| spherical cutoff:                                                   NO
 PW_GRID|   Bounds   1            -67      67                Points:         135
 PW_GRID|   Bounds   2            -67      67                Points:         135
 PW_GRID|   Bounds   3            -40      40                Points:          81
 PW_GRID| Volume element (a.u.^3)  0.1005E-01     Volume (a.u.^3)     14833.7304
 PW_GRID| Grid span                                                    FULLSPACE
 PW_GRID|   Distribution                         Average         Max         Min
 PW_GRID|   G-Vectors                            11533.0       12150       10800
 PW_GRID|   G-Rays                                  85.4          90          80
 PW_GRID|   Real Space Points                    11533.0       21870       10935

 PW_GRID| Information for grid number                                          3
 PW_GRID| Number of the reference grid                                         1
 PW_GRID| Grid distributed over                                   128 processors
 PW_GRID| Real space group dimensions                                     8   16
 PW_GRID| the grid is blocked:                                                NO
 PW_GRID| Cutoff [a.u.]                                                     33.3
 PW_GRID| spherical cutoff:                                                   NO
 PW_GRID|   Bounds   1            -37      37                Points:          75
 PW_GRID|   Bounds   2            -37      37                Points:          75
 PW_GRID|   Bounds   3            -24      23                Points:          48
 PW_GRID| Volume element (a.u.^3)  0.5494E-01     Volume (a.u.^3)     14833.7304
 PW_GRID| Grid span                                                    FULLSPACE
 PW_GRID|   Distribution                         Average         Max         Min
 PW_GRID|   G-Vectors                             2109.4        2475        1725
 PW_GRID|   G-Rays                                  28.1          33          23
 PW_GRID|   Real Space Points                     2109.4        2400        1728

 PW_GRID| Information for grid number                                          4
 PW_GRID| Number of the reference grid                                         1
 PW_GRID| Grid distributed over                                   128 processors
 PW_GRID| Real space group dimensions                                     8   16
 PW_GRID| the grid is blocked:                                                NO
 PW_GRID| Cutoff [a.u.]                                                     11.1
 PW_GRID| spherical cutoff:                                                   NO
 PW_GRID|   Bounds   1            -22      22                Points:          45
 PW_GRID|   Bounds   2            -22      22                Points:          45
 PW_GRID|   Bounds   3            -13      13                Points:          27
 PW_GRID| Volume element (a.u.^3)  0.2713         Volume (a.u.^3)     14833.7304
 PW_GRID| Grid span                                                    FULLSPACE
 PW_GRID|   Distribution                         Average         Max         Min
 PW_GRID|   G-Vectors                              427.1         585         270
 PW_GRID|   G-Rays                                   9.5          13           6
 PW_GRID|   Real Space Points                      427.1         486         270

 POISSON| Solver                                                        PERIODIC
 POISSON| Periodicity                                                        XYZ

 RS_GRID| Information for grid number                                          1
 RS_GRID|   Bounds   1           -112     112                Points:         225
 RS_GRID|   Bounds   2           -112     112                Points:         225
 RS_GRID|   Bounds   3            -72      71                Points:         144
 RS_GRID| Real space distribution over                                  8 groups
 RS_GRID| Real space distribution along direction                              1
 RS_GRID| Border size                                                         26
 RS_GRID| Real space distribution over                                 16 groups
 RS_GRID| Real space distribution along direction                              2
 RS_GRID| Border size                                                         26
 RS_GRID|   Distribution                         Average         Max         Min
 RS_GRID|   Planes                                  80.1          81          80
 RS_GRID|   Distribution                         Average         Max         Min
 RS_GRID|   Planes                                  66.1          67          66

 RS_GRID| Information for grid number                                          2
 RS_GRID|   Bounds   1            -67      67                Points:         135
 RS_GRID|   Bounds   2            -67      67                Points:         135
 RS_GRID|   Bounds   3            -40      40                Points:          81
 RS_GRID| Real space distribution over                                  8 groups
 RS_GRID| Real space distribution along direction                              1
 RS_GRID| Border size                                                         24
 RS_GRID| Real space distribution over                                 16 groups
 RS_GRID| Real space distribution along direction                              2
 RS_GRID| Border size                                                         24
 RS_GRID|   Distribution                         Average         Max         Min
 RS_GRID|   Planes                                  64.9          65          64
 RS_GRID|   Distribution                         Average         Max         Min
 RS_GRID|   Planes                                  56.4          57          56

 RS_GRID| Information for grid number                                          3
 RS_GRID|   Bounds   1            -37      37                Points:          75
 RS_GRID|   Bounds   2            -37      37                Points:          75
 RS_GRID|   Bounds   3            -24      23                Points:          48
 RS_GRID| Real space fully replicated
 RS_GRID| Group size                                                           1

 RS_GRID| Information for grid number                                          4
 RS_GRID|   Bounds   1            -22      22                Points:          45
 RS_GRID|   Bounds   2            -22      22                Points:          45
 RS_GRID|   Bounds   3            -13      13                Points:          27
 RS_GRID| Real space fully replicated
 RS_GRID| Group size                                                           1

 BFGS| Use rational function optimization for step estimation:                NO
 BFGS| Use model Hessian for initial guess:                                  YES
 BFGS| Restart Hessian:                                                       NO
 BFGS| Trust radius:                                                       0.472

 *******************************************************************************
 ***                     STARTING GEOMETRY OPTIMIZATION                      ***
 ***                                   BFGS                                  ***
 *******************************************************************************

 Spin 1

 Number of electrons:                                                        768
 Number of occupied orbitals:                                                768
 Number of molecular orbitals:                                               768

 Spin 2

 Number of electrons:                                                        767
 Number of occupied orbitals:                                                767
 Number of molecular orbitals:                                               767

 Number of orbital functions:                                               3328
 Number of independent orbital functions:                                   3328

 Extrapolation method: initial_guess

 *** WARNING in qs_initial_guess.F:306 :: User requested to restart the    ***
 *** wavefunction from the file named: tio2-RESTART.wfn. This file does    ***
 *** not exist. Please check the existence of the file or change properly  ***
 *** the value of the keyword WFN_RESTART_FILE_NAME. Calculation continues ***
 *** using ATOMIC GUESS.                                                   ***


 Atomic guess: The first density matrix is obtained in terms of atomic orbitals
               and electronic configurations assigned to each atomic kind

 Guess for atomic kind: Ti

 Electronic structure
    Total number of core electrons                                         10.00
    Total number of valence electrons                                      12.00
    Total number of electrons                                              22.00
    Multiplicity                                                   not specified
    S   [  2.00  2.00] 2.00  2.00
    P   [  6.00] 6.00
    D      2.00


 *******************************************************************************
                  Iteration          Convergence                     Energy [au]
 *******************************************************************************
                          1         2.59099                     -56.573945749309
                          2        0.737518                     -57.461623245624
                          3        0.123244E-01                 -57.676656834797
                          4        0.338536E-02                 -57.676690535970
                          5        0.252157E-03                 -57.676697146183
                          6        0.162704E-05                 -57.676697160103
                          7        0.846593E-06                 -57.676697160104

 Energy components [Hartree]           Total Energy ::          -57.676697160104
                                        Band Energy ::          -13.440549799540
                                     Kinetic Energy ::           25.008468428381
                                   Potential Energy ::          -82.685165588485
                                      Virial (-V/T) ::            3.306286661467
                                        Core Energy ::          -97.155838374470
                                          XC Energy ::           -6.919409696495
                                     Coulomb Energy ::           46.398550910862
                       Total Pseudopotential Energy ::         -122.259340742080
                       Local Pseudopotential Energy ::         -118.928992669456
                    Nonlocal Pseudopotential Energy ::           -3.330348072625
                                        Confinement ::            0.950339392289

 Orbital energies  State     L     Occupation   Energy[a.u.]          Energy[eV]

                       1     0          2.000      -2.312566          -62.928123
                       2     0          2.000      -0.123060           -3.348633

                       1     1          6.000      -1.385567          -37.703193

                       1     2          2.000      -0.127948           -3.481643


 Total Electron Density at R=0:                                         0.004726

 Guess for atomic kind: O

 Electronic structure
    Total number of core electrons                                          2.00
    Total number of valence electrons                                       6.00
    Total number of electrons                                               8.00
    Multiplicity                                                   not specified
    S   [  2.00] 2.00
    P      4.00


 *******************************************************************************
                  Iteration          Convergence                     Energy [au]
 *******************************************************************************
                          1        0.702811                     -15.577904332270
                          2        0.612408                     -15.588447180504
                          3        0.955344E-02                 -15.655871208406
                          4        0.223754E-02                 -15.655885053552
                          5        0.157183E-02                 -15.655885461027
                          6        0.124953E-02                 -15.655885607150
                          7        0.312011E-06                 -15.655885858066

 Energy components [Hartree]           Total Energy ::          -15.655885858066
                                        Band Energy ::           -2.983128125584
                                     Kinetic Energy ::           11.754765134683
                                   Potential Energy ::          -27.410650992749
                                      Virial (-V/T) ::            2.331875684345
                                        Core Energy ::          -26.153522949072
                                          XC Energy ::           -3.157392363346
                                     Coulomb Energy ::           13.655029454351
                       Total Pseudopotential Energy ::          -37.943026860963
                       Local Pseudopotential Energy ::          -39.220419683052
                    Nonlocal Pseudopotential Energy ::            1.277392822089
                                        Confinement ::            0.347387772086

 Orbital energies  State     L     Occupation   Energy[a.u.]          Energy[eV]

                       1     0          2.000      -0.861522          -23.443215

                       1     1          4.000      -0.315021           -8.572154


 Total Electron Density at R=0:                                         0.000093

 Spin 1
 Re-scaling the density matrix to get the right number of electrons for spin 1
                  # Electrons              Trace(P)               Scaling factor
                          768               768.001                        1.000

 Spin 2
 Re-scaling the density matrix to get the right number of electrons for spin 2
                  # Electrons              Trace(P)               Scaling factor
                          767               768.001                        0.999


 SCF WAVEFUNCTION OPTIMIZATION

  ----------------------------------- OT ---------------------------------------
  Minimizer      : DIIS                : direct inversion
                                         in the iterative subspace
                                         using   7 DIIS vectors
                                         safer DIIS on
  Preconditioner : FULL_SINGLE_INVERSE : inversion of 
                                         H + eS - 2*(Sc)(c^T*H*c+const)(Sc)^T
  Precond_solver : DEFAULT
  stepsize       :    0.08000000                  energy_gap     :    0.08000000
  eps_taylor     :   0.10000E-15                  max_taylor     :             4
  ----------------------------------- OT ---------------------------------------

  Step     Update method      Time    Convergence         Total energy    Change
  ------------------------------------------------------------------------------
     1 OT DIIS     0.80E-01    2.2     0.01004676     -5657.3405421109 -5.66E+03
     2 OT DIIS     0.80E-01    1.5     0.00725412     -5692.3096945447 -3.50E+01
     3 OT DIIS     0.80E-01    1.5     0.00458228     -5725.2237031914 -3.29E+01
     4 OT DIIS     0.80E-01    1.5     0.00364967     -5735.3944021348 -1.02E+01
     5 OT DIIS     0.80E-01    1.5     0.00267015     -5746.8181069780 -1.14E+01
     6 OT DIIS     0.80E-01    1.5     0.00220098     -5753.7250745678 -6.91E+00
     7 OT DIIS     0.80E-01    1.5     0.00184355     -5759.8860626448 -6.16E+00
     8 OT DIIS     0.80E-01    1.5     0.00147610     -5765.8346569558 -5.95E+00
     9 OT DIIS     0.80E-01    1.5     0.00127844     -5769.4445230190 -3.61E+00
    10 OT DIIS     0.80E-01    1.5     0.00099691     -5772.7186496924 -3.27E+00
    11 OT DIIS     0.80E-01    1.5     0.00090985     -5773.5353641634 -8.17E-01
    12 OT DIIS     0.80E-01    1.5     0.00073660     -5775.3478885323 -1.81E+00
    13 OT DIIS     0.80E-01    1.5     0.00060496     -5776.6927343199 -1.34E+00
    14 OT DIIS     0.80E-01    1.5     0.00050106     -5777.6253851936 -9.33E-01
    15 OT DIIS     0.80E-01    1.5     0.00045155     -5778.1084190504 -4.83E-01
    16 OT DIIS     0.80E-01    1.5     0.00038083     -5778.6397423675 -5.31E-01
    17 OT DIIS     0.80E-01    1.5     0.00035370     -5778.8571304248 -2.17E-01
    18 OT DIIS     0.80E-01    1.5     0.00030712     -5779.1833266501 -3.26E-01
    19 OT DIIS     0.80E-01    1.5     0.00026913     -5779.4048880182 -2.22E-01
    20 OT DIIS     0.80E-01    1.5     0.00025561     -5779.5137824744 -1.09E-01
    21 OT DIIS     0.80E-01    1.5     0.00023500     -5779.6995312487 -1.86E-01
    22 OT DIIS     0.80E-01    1.5     0.00021746     -5779.8117574067 -1.12E-01
    23 OT DIIS     0.80E-01    1.5     0.00019580     -5779.9718690800 -1.60E-01
    24 OT DIIS     0.80E-01    1.5     0.00017441     -5780.0719684024 -1.00E-01
    25 OT DIIS     0.80E-01    1.5     0.00017426     -5780.1090360293 -3.71E-02
    26 OT DIIS     0.80E-01    1.5     0.00014569     -5780.2134311838 -1.04E-01
    27 OT DIIS     0.80E-01    1.5     0.00014278     -5780.2501582149 -3.67E-02
    28 OT DIIS     0.80E-01    1.5     0.00013537     -5780.2842836661 -3.41E-02
    29 OT SD       0.80E-01    1.5     0.00013071     -5780.3316164697 -4.73E-02
    30 OT DIIS     0.80E-01    1.5     0.00012636     -5780.3384703712 -6.85E-03
    31 OT DIIS     0.80E-01    1.5     0.00012122     -5780.3857635426 -4.73E-02
    32 OT DIIS     0.80E-01    1.5     0.00010721     -5780.4242384784 -3.85E-02
    33 OT DIIS     0.80E-01    1.5     0.00009755     -5780.4573170070 -3.31E-02
    34 OT DIIS     0.80E-01    1.5     0.00008920     -5780.4921021807 -3.48E-02
    35 OT DIIS     0.80E-01    1.5     0.00008596     -5780.5115550951 -1.95E-02
    36 OT DIIS     0.80E-01    1.5     0.00008104     -5780.5250543909 -1.35E-02
    37 OT DIIS     0.80E-01    1.5     0.00008003     -5780.5335163279 -8.46E-03
    38 OT DIIS     0.80E-01    1.5     0.00007803     -5780.5388366833 -5.32E-03
    39 OT DIIS     0.80E-01    1.5     0.00007484     -5780.5559004913 -1.71E-02
    40 OT DIIS     0.80E-01    1.5     0.00006953     -5780.5821469861 -2.62E-02

  Leaving inner SCF loop after reaching    40 steps.


  Electronic density on regular grids:      -1534.9999999999        0.0000000001
  Core density on regular grids:             1535.9999999995       -0.0000000005
  Total charge density on r-space grids:        0.9999999996
  Total charge density g-space grids:           0.9999999996

  Overlap energy of the core charge distribution:               0.00000000000325
  Self energy of the core charge distribution:             -12156.89556134359555
  Core Hamiltonian energy:                                   3265.65341925726443
  Hartree energy:                                            4025.49018085276384
  Exchange-correlation energy:                               -923.17194283088554

  DFT+U energy:                                                 8.34175707836999

  Total energy:                                             -5780.58214698607935

  outer SCF iter =    1 RMS gradient =   0.70E-04 energy =      -5780.5821469861

  ----------------------------------- OT ---------------------------------------
[...]
       0.19210038      0.19299458      0.19418796      0.19474877
       0.19508224      0.19692137      0.19861863      0.20013538
       0.20056365      0.20782023      0.20899106      0.21157461
 Fermi Energy [eV] :    5.757238
  
  Eigenvalues of the occupied subspace spin            2
 ---------------------------------------------
      -1.95097046     -1.94884190     -1.94767718     -1.94649185
      -1.94489338     -1.94267046     -1.94191389     -1.94169248
      -1.94094585     -1.94082056     -1.94044702     -1.94040364
      -1.93934634     -1.93924797     -1.93910374     -1.93795559
      -1.93743870     -1.93670488     -1.93652692     -1.93646201
      -1.93623315     -1.93586390     -1.93524285     -1.93504601
      -1.93484100     -1.93480895     -1.93427491     -1.93364408
      -1.93344785     -1.93331109     -1.93330901     -1.93327942
      -1.93305936     -1.93260553     -1.93231966     -1.93182429
      -1.93146392     -1.93040902     -1.93037472     -1.92908118
      -1.92897723     -1.92842721     -1.92824986     -1.92676503
      -1.92602103     -1.92530712     -1.92530574     -1.92436102
      -1.92336870     -1.92300939     -1.92137823     -1.92038780
      -1.92030566     -1.91887372     -1.91618082     -1.91568378
      -1.91236745     -1.90948852     -1.90845887     -1.90342765
      -1.90116817     -1.90014698     -1.89849264     -1.89810409
      -1.02624365     -1.02469449     -1.02379766     -1.02345191
      -1.02265985     -1.02184211     -1.02123612     -1.02111917
      -1.02050151     -1.02025552     -1.01965134     -1.01926603
      -1.01897677     -1.01824961     -1.01791720     -1.01753366
      -1.01735236     -1.01707491     -1.01698398     -1.01669822
      -1.01637828     -1.01608861     -1.01573764     -1.01562626
      -1.01544374     -1.01521367     -1.01520582     -1.01486412
      -1.01444908     -1.01435411     -1.01418306     -1.01399497
      -1.01384924     -1.01362941     -1.01349158     -1.01319982
      -1.01297972     -1.01278102     -1.01273316     -1.01237499
      -1.01233696     -1.01219861     -1.01208270     -1.01196339
      -1.01183420     -1.01176215     -1.01154914     -1.01146450
      -1.01135991     -1.01132044     -1.01111761     -1.01068630
      -1.01060482     -1.01051721     -1.01046033     -1.01030741
      -1.01020273     -1.01003720     -1.00986964     -1.00957947
      -1.00935472     -1.00920286     -1.00910407     -1.00886616
      -1.00877402     -1.00864764     -1.00850726     -1.00829984
      -1.00829130     -1.00797366     -1.00786592     -1.00766172
      -1.00743912     -1.00734825     -1.00725064     -1.00717024
      -1.00710259     -1.00706450     -1.00699686     -1.00678561
      -1.00667613     -1.00653699     -1.00643944     -1.00635894
      -1.00629583     -1.00613068     -1.00604900     -1.00585664
      -1.00573645     -1.00561121     -1.00531020     -1.00528306
      -1.00506488     -1.00500824     -1.00493484     -1.00477902
      -1.00464601     -1.00453855     -1.00440854     -1.00429281
      -1.00423933     -1.00415525     -1.00409772     -1.00392888
      -1.00384113     -1.00372229     -1.00351671     -1.00338680
      -1.00335258     -1.00324669     -1.00299409     -1.00281698
      -1.00260411     -1.00256326     -1.00244432     -1.00233620
      -1.00223217     -1.00213899     -1.00175870     -1.00161783
      -1.00145130     -1.00100774     -1.00096443     -1.00074532
      -1.00072918     -1.00050378     -1.00028950     -1.00010444
      -0.99970833     -0.99953837     -0.99943224     -0.99909176
      -0.99902414     -0.99888635     -0.99884575     -0.99836385
      -0.99796302     -0.99795767     -0.99751061     -0.99743209
      -0.99732123     -0.99716633     -0.99625624     -0.99604625
      -0.99568242     -0.99556921     -0.99553907     -0.99546929
      -0.99524962     -0.99475098     -0.99419819     -0.99396492
      -0.99372765     -0.99254425     -0.99246800     -0.99224426
      -0.99199232     -0.99148397     -0.99126153     -0.99120590
      -0.99106793     -0.99073417     -0.99006745     -0.98929765
      -0.98848844     -0.98810628     -0.98773863     -0.98699823
      -0.98565830     -0.98508872     -0.98447646     -0.98248350
      -0.98206064     -0.98105733     -0.98084631     -0.98074337
      -0.98003559     -0.97995713     -0.97871690     -0.97747196
      -0.97590192     -0.97556927     -0.97508590     -0.97446685
      -0.97378165     -0.97303168     -0.97268249     -0.97074315
      -0.96944294     -0.96911659     -0.96867161     -0.96674165
      -0.44135168     -0.43190888     -0.43082310     -0.43012934
      -0.42811402     -0.42284299     -0.42259116     -0.42083325
      -0.42021226     -0.41905051     -0.41887548     -0.41774724
      -0.41733060     -0.41667389     -0.41430452     -0.41248236
      -0.41154206     -0.41087190     -0.41018576     -0.40921296
      -0.40792933     -0.40781807     -0.40725727     -0.40593930
      -0.40585652     -0.40496008     -0.40423516     -0.40362833
      -0.40353160     -0.40275578     -0.40176849     -0.40079172
      -0.40024061     -0.39886224     -0.39845724     -0.39799566
      -0.39758217     -0.39716520     -0.39677855     -0.39642551
      -0.39610010     -0.39554896     -0.39448204     -0.39410041
      -0.39393828     -0.39352745     -0.39321348     -0.39232360
      -0.39209082     -0.39195368     -0.39160069     -0.39147788
      -0.39093371     -0.39065729     -0.39050207     -0.39019955
      -0.38998756     -0.38988280     -0.38870889     -0.38849826
      -0.38820248     -0.38797331     -0.38769923     -0.38731367
      -0.38664694     -0.38646502     -0.38577701     -0.38570866
      -0.38548958     -0.38522751     -0.38499162     -0.38478549
      -0.38447783     -0.38414645     -0.38373037     -0.38299461
      -0.38266993     -0.38233054     -0.38226183     -0.38201963
      -0.38197128     -0.38157613     -0.38150398     -0.38093219
      -0.38063748     -0.38012919     -0.38000614     -0.37966270
      -0.37935103     -0.37916150     -0.37873160     -0.37849481
      -0.37813898     -0.37792936     -0.37746899     -0.37744309
      -0.37642863     -0.37594402     -0.37568324     -0.37556301
      -0.37527469     -0.37485159     -0.37417270     -0.37357609
      -0.37243497     -0.37192279     -0.37137303     -0.37093847
      -0.37059699     -0.36987469     -0.36839761     -0.36805677
      -0.36653009     -0.36560021     -0.36157272     -0.36023371
      -0.35706625     -0.35429206     -0.35204593     -0.35127284
      -0.34789008     -0.34627827     -0.34396722     -0.33987676
      -0.33847505     -0.33191032     -0.30521748     -0.28728835
       0.01569610      0.01592928      0.01646243      0.01751141
       0.01805890      0.01918495      0.01961395      0.01991776
       0.02040911      0.02102944      0.02152171      0.02168670
       0.02185783      0.02214616      0.02296663      0.02313692
       0.02322003      0.02362825      0.02468954      0.02497851
       0.02614088      0.02651200      0.02691997      0.02699387
       0.02765092      0.02791295      0.02807786      0.02885948
       0.02903263      0.02923516      0.02953385      0.02982334
       0.03040343      0.03104455      0.03155949      0.03177526
       0.03245119      0.03263548      0.03318921      0.03342990
       0.03344935      0.03380592      0.03424902      0.03474418
       0.03508561      0.03517181      0.03622781      0.03648594
       0.03702262      0.03717995      0.03765771      0.03805814
       0.03863312      0.03886175      0.03898774      0.03966826
       0.04026207      0.04087165      0.04162712      0.04228218
       0.04273891      0.04297742      0.04351463      0.04369790
       0.04486034      0.04519880      0.04563906      0.04607099
       0.04645330      0.04693059      0.04749243      0.04772710
       0.04794620      0.04859792      0.04864955      0.04898738
       0.04910409      0.04947247      0.05018776      0.05113998
       0.05151149      0.05168913      0.05207653      0.05226311
       0.05316978      0.05353866      0.05399540      0.05441476
       0.05470815      0.05515916      0.05576756      0.05623801
       0.05665284      0.05689585      0.05710619      0.05779626
       0.05793610      0.05857134      0.05877857      0.05919219
       0.05982701      0.06024646      0.06044515      0.06131880
       0.06153274      0.06187386      0.06299829      0.06395771
       0.06457379      0.06483600      0.06504054      0.06584427
       0.06685488      0.06719282      0.06769051      0.06793962
       0.06807908      0.06857574      0.07009809      0.07063561
       0.07152400      0.07224168      0.07323529      0.07342526
       0.07389682      0.07404907      0.07457299      0.07491351
       0.07539315      0.07589454      0.07612323      0.07658655
       0.07678323      0.07734615      0.07777185      0.07803728
       0.07861257      0.07920064      0.07943292      0.07961210
       0.07995735      0.08087520      0.08224012      0.08252208
       0.08279441      0.08310452      0.08393115      0.08446975
       0.08474737      0.08667303      0.08705016      0.08740600
       0.08837600      0.08869872      0.08895087      0.08953142
       0.08969288      0.09013264      0.09046303      0.09074595
       0.09102497      0.09157344      0.09255066      0.09265228
       0.09339423      0.09375401      0.09432310      0.09481617
       0.09495131      0.09557494      0.09565356      0.09584772
       0.09702694      0.09753896      0.09817860      0.09850775
       0.09920978      0.09945023      0.09971609      0.10055844
       0.10080533      0.10087839      0.10123363      0.10149024
       0.10178471      0.10223005      0.10235593      0.10281465
       0.10301783      0.10353273      0.10373495      0.10384056
       0.10400087      0.10425655      0.10472604      0.10484150
       0.10554411      0.10568408      0.10583530      0.10614646
       0.10623771      0.10651386      0.10696655      0.10722322
       0.10775996      0.10793896      0.10823414      0.10831464
       0.10862879      0.10954264      0.10974984      0.11021927
       0.11082187      0.11133307      0.11178779      0.11212668
       0.11215815      0.11237290      0.11298531      0.11323642
       0.11367522      0.11404774      0.11434476      0.11454904
       0.11493463      0.11586406      0.11639544      0.11652251
       0.11708674      0.11716350      0.11738975      0.11757569
       0.11838100      0.11913139      0.11979979      0.12018443
       0.12039567      0.12081475      0.12113394      0.12139402
       0.12221186      0.12262727      0.12297872      0.12325594
       0.12342303      0.12363850      0.12424806      0.12458327
       0.12542210      0.12625029      0.12785871      0.12816842
       0.12891060      0.12921623      0.13002297      0.13038391
       0.13194848      0.13245921      0.13376798      0.13472428
       0.13525388      0.13555122      0.13599218      0.13668438
       0.13739616      0.13771074      0.13885701      0.13893291
       0.13916315      0.13950551      0.14206655      0.14230113
       0.14283928      0.14354551      0.14393893      0.14399307
       0.14451204      0.14536600      0.14564525      0.14565779
       0.14587407      0.14599361      0.14619785      0.14678677
       0.14745183      0.14753120      0.14759216      0.14832357
       0.14868762      0.14876785      0.14927469      0.14938506
       0.14981639      0.15033350      0.15123900      0.15132209
       0.15242684      0.15306546      0.15339672      0.15366570
       0.15411074      0.15433705      0.15513291      0.15560150
       0.15595122      0.15613336      0.15664314      0.15673142
       0.15695641      0.15758029      0.15796413      0.15815000
       0.15849150      0.15885105      0.15905183      0.15952974
       0.16037050      0.16063540      0.16099910      0.16222942
       0.16256734      0.16296108      0.16360899      0.16374294
       0.16403926      0.16496714      0.16526910      0.16629153
       0.16682335      0.16698321      0.16726629      0.16786731
       0.16800104      0.16821077      0.16845599      0.16901523
       0.16915350      0.16954290      0.16959196      0.17009933
       0.17040259      0.17085524      0.17137271      0.17147168
       0.17238798      0.17259023      0.17317673      0.17346406
       0.17423522      0.17486314      0.17519019      0.17559364
       0.17623400      0.17663608      0.17755913      0.17776770
       0.17876071      0.17882850      0.17960607      0.18018365
       0.18062760      0.18144258      0.18218001      0.18378767
       0.18452986      0.18636161      0.18758720      0.18882341
       0.19088473      0.19236947      0.19376477      0.19508249
       0.19613882      0.19795639      0.20005195      0.20214728
       0.20411771      0.20764725      0.20997384      0.21561685
       0.22075027      0.22430050      0.26697134
 Fermi Energy [eV] :    7.264660
  
  Lowest Eigenvalues of the unoccupied subspace spin            1
 -----------------------------------------------------
 OT| Eigensolver reached convergence in 61 iterations
       0.26954498
  
  Lowest Eigenvalues of the unoccupied subspace spin            2
 -----------------------------------------------------
 OT| Eigensolver reached convergence in 95 iterations
       0.27743556
  
 HOMO - LUMO gap [eV] :    1.577454
 HOMO - LUMO gap [eV] :    0.284746

 ENERGY| Total FORCE_EVAL ( QS ) energy [a.u.]:            -5780.657380873869442

 OPT| **************************************************************************
 OPT| Step number                                                             12
 OPT| Optimization method                                                   BFGS
 OPT| Total energy [hartree]                                    -5780.6573808739
 OPT| Effective energy change [hartree]                             0.2385036649
 OPT| Predicted energy change [hartree]                            -0.0328099494
 OPT| Scaling factor                                                0.0312812063
 OPT| Step size                                                     0.4724315332
 OPT| Trust radius                                                  0.4724315332
 OPT| Decrease in energy                                                      NO
 OPT| Used time [s]                                                      152.824
 OPT|
 OPT| Maximum step size                                             0.4724315332
 OPT| Convergence limit for maximum step size                       0.0030000000
 OPT| Maximum step size is converged                                          NO
 OPT|
 OPT| RMS step size                                                 0.0752701064
 OPT| Convergence limit for RMS step size                           0.0015000000
 OPT| RMS step size is converged                                              NO
 OPT|
 OPT| Maximum gradient                                              0.0891983663
 OPT| Convergence limit for maximum gradient                        0.0004500000
 OPT| Maximum gradient is converged                                           NO
 OPT|
 OPT| RMS gradient                                                  0.0142022063
 OPT| Convergence limit for RMS gradient                            0.0003000000
 OPT| RMS gradient is converged                                               NO
 OPT| **************************************************************************
 OPT| Estimated peak process memory after this step [MiB]                    360

 --------------------------
 OPTIMIZATION STEP:     13
 --------------------------

 Spin 1

 Number of electrons:                                                        768
 Number of occupied orbitals:                                                768
 Number of molecular orbitals:                                               768

 Spin 2

 Number of electrons:                                                        767
 Number of occupied orbitals:                                                767
 Number of molecular orbitals:                                               767

 Number of orbital functions:                                               3328
 Number of independent orbital functions:                                   3328

 Parameters for the always stable predictor-corrector (ASPC) method:

  ASPC order: 3

  B(1) =   3.000000
  B(2) =  -3.428571
  B(3) =   1.928571
  B(4) =  -0.571429
  B(5) =   0.071429

 Parameters for the always stable predictor-corrector (ASPC) method:

  ASPC order: 3

  B(1) =   3.000000
  B(2) =  -3.428571
  B(3) =   1.928571
  B(4) =  -0.571429
  B(5) =   0.071429

 Extrapolation method: ASPC


 SCF WAVEFUNCTION OPTIMIZATION

  ----------------------------------- OT ---------------------------------------
  Minimizer      : DIIS                : direct inversion
                                         in the iterative subspace
                                         using   7 DIIS vectors
                                         safer DIIS on
  Preconditioner : FULL_SINGLE_INVERSE : inversion of 
                                         H + eS - 2*(Sc)(c^T*H*c+const)(Sc)^T
  Precond_solver : DEFAULT
  stepsize       :    0.08000000                  energy_gap     :    0.08000000
  eps_taylor     :   0.10000E-15                  max_taylor     :             4
  ----------------------------------- OT ---------------------------------------

  Step     Update method      Time    Convergence         Total energy    Change
  ------------------------------------------------------------------------------
     1 OT DIIS     0.80E-01    1.6     0.00183709     -5777.5019490744 -5.78E+03
     2 OT DIIS     0.80E-01    1.5     0.00118803     -5778.5841947510 -1.08E+00
     3 OT DIIS     0.80E-01    1.5     0.00086367     -5779.3495316599 -7.65E-01
     4 OT DIIS     0.80E-01    1.5     0.00060494     -5779.9943341537 -6.45E-01
     5 OT DIIS     0.80E-01    1.5     0.00037904     -5780.4663875080 -4.72E-01
     6 OT DIIS     0.80E-01    1.5     0.00025474     -5780.6280142184 -1.62E-01
     7 OT DIIS     0.80E-01    1.5     0.00017720     -5780.7136647292 -8.57E-02
     8 OT DIIS     0.80E-01    1.5     0.00012947     -5780.7529256028 -3.93E-02
     9 OT DIIS     0.80E-01    1.5     0.00009739     -5780.7749894907 -2.21E-02
    10 OT DIIS     0.80E-01    1.5     0.00007142     -5780.7896331220 -1.46E-02
    11 OT DIIS     0.80E-01    1.5     0.00005877     -5780.7957506177 -6.12E-03
    12 OT DIIS     0.80E-01    1.5     0.00004726     -5780.8015829045 -5.83E-03
    13 OT DIIS     0.80E-01    1.5     0.00004121     -5780.8047853967 -3.20E-03
    14 OT DIIS     0.80E-01    1.5     0.00003545     -5780.8080856050 -3.30E-03
    15 OT DIIS     0.80E-01    1.5     0.00003230     -5780.8102642756 -2.18E-03
    16 OT DIIS     0.80E-01    1.5     0.00003003     -5780.8123625058 -2.10E-03
    17 OT DIIS     0.80E-01    1.5     0.00002937     -5780.8135904358 -1.23E-03
    18 OT DIIS     0.80E-01    1.5     0.00002933     -5780.8144069612 -8.17E-04
    19 OT SD       0.80E-01    1.5     0.00002936     -5780.8144807612 -7.38E-05
    20 OT SD       0.80E-01    1.5     0.00002954     -5780.8148339041 -3.53E-04
    21 OT SD       0.80E-01    1.5     0.00002979     -5780.8151918251 -3.58E-04
    22 OT SD       0.80E-01    1.5     0.00003010     -5780.8155562728 -3.64E-04
    23 OT SD       0.80E-01    1.5     0.00003048     -5780.8159288496 -3.73E-04
    24 OT SD       0.80E-01    1.5     0.00003091     -5780.8163111017 -3.82E-04
    25 OT SD       0.80E-01    1.5     0.00003140     -5780.8167045590 -3.93E-04
    26 OT SD       0.80E-01    1.5     0.00003193     -5780.8171107576 -4.06E-04
    27 OT SD       0.80E-01    1.5     0.00003252     -5780.8175312528 -4.20E-04
    28 OT SD       0.80E-01    1.5     0.00003316     -5780.8179676269 -4.36E-04
