     192
 i =        6, E =     -5780.8929260145
Ti         0.0008731348        0.0022824734       -0.0001023655
Ti         1.8885477442        1.8885725597        4.8075599785
Ti         0.0011417223        1.8886398738        2.4053050158
Ti         1.8885449473        0.0011356467        7.2094907332
Ti         0.0015735925        3.7761022451        0.0027824359
Ti         1.8887236502       13.2375875672        4.8058546834
Ti        11.3499298127        1.8884313336        2.4070596614
Ti         5.6694074679        0.0010620545        7.2140242832
Ti         1.8885064870        3.7764892991        7.2069332305
Ti         0.0011019172       13.2374748939        2.4074507505
Ti         5.6695941964        1.8887223093        4.8034386058
Ti        11.3499218576        0.0003390877       -0.0016101412
Ti         3.7774424312        0.0003758553       -0.0028931526
Ti        13.2376234158        1.8886810315        4.8092680698
Ti        13.2375342227        0.0011140174        7.2078690369
Ti         3.7764985932        1.8884538924        2.4082806076
Ti         1.8887409176        5.6695626433        4.8116893642
Ti         0.0016418459       11.3486537941        0.0015009004
Ti         0.0010582115        5.6694211387        2.4011895178
Ti         1.8885018995       11.3499495439        7.2081000759
Ti         0.0008725674        7.5698212774        0.0055035197
Ti         1.8885702376        9.4623380340        4.8087713947
Ti         7.5694126121        1.8887095716        2.4106476205
Ti         9.4624900639        0.0011375197        7.2108917934
Ti         1.8886141174        7.5693992367        7.2041483683
Ti         0.0011437349        9.4625962622        2.4040523540
Ti         9.4623189423        1.8885804208        4.8063394660
Ti         7.5687999498        0.0020647713       -0.0056175664
Ti         3.7766534359        3.7777176784       -0.0001372312
Ti        13.2374439222       13.2374830228        4.8075578866
Ti        11.3499419954        5.6696269749        2.4024103537
Ti         5.6694808805       11.3499353448        7.2124393895
Ti        13.2376064092        3.7765664739        7.2051269081
Ti         3.7765989798       13.2376602943        2.4097632107
Ti         5.6694544399        5.6694580057        4.8075510637
Ti        11.3491856777       11.3505496213       -0.0000283196
Ti        11.3499692529       13.2376789051        2.4085869418
Ti         5.6694783076        3.7765745310        7.2112688713
Ti         3.7767079564       11.3505025359       -0.0013873195
Ti        13.2374929979        5.6694510798        4.8133501891
Ti         5.6694564193       13.2375061161        4.8017568163
Ti        11.3493045117        3.7777565169        0.0012178433
Ti        13.2376117399       11.3499962880        7.2061964903
Ti         3.7766076915        5.6696084799        2.4036302772
Ti         3.7773199492        7.5683150133        0.0026914062
Ti        13.2376238795        9.4623983322        4.8104345736
Ti         7.5693731041        5.6694290709        2.4065064977
Ti         9.4624509979       11.3499247255        7.2094959479
Ti        13.2375625141        7.5693439846        7.2025311822
Ti         3.7765263113        9.4624158751        2.4069489942
Ti         9.4623990001        5.6695640676        4.8104832049
Ti         7.5694378485       11.3488362073       -0.0040531638
Ti        11.3499151738        9.4624433043        2.4057571380
Ti         5.6694251742        7.5693546297        7.2086379092
Ti         5.6695843587        9.4623867574        4.8046086930
Ti        11.3499412231        7.5681934569        0.0039826089
Ti         9.4624016888        3.7764846674        7.2083102007
Ti         7.5693729235       13.2375076171        2.4126450846
Ti         7.5694655585        3.7761257513       -0.0027789616
Ti         9.4624378533       13.2376027334        4.8046560513
Ti         7.5688615664        7.5698442792       -0.0000216782
Ti         9.4623087120        9.4623375248        4.8075456524
Ti         7.5694070052        9.4625382829        2.4093792127
Ti         9.4624426536        7.5694208726        7.2054989271
O         0.0006713788        0.0012896244        1.9889795375
O         1.8843818108        1.8876549337        6.8011362304
O         0.0016236291        1.8842914682        4.3964747413
O         1.8877932728        0.0006754437        9.2057641336
O         1.8841991024        0.0015851959        5.2184585279
O         0.0003295856        1.8879007378        0.4101568945
O         1.8877153200        1.8839453096        2.8138675875
O         0.0016692765        0.0001472257        7.6260505368
O         0.0005409483        3.7759673054        1.9867903118
O         1.8842831312       13.2369582006        6.8013576546
O        11.3510429001        1.8844230997        4.3964566601
O         5.6722257602        0.0008367363        9.2058350079
O         1.8844126742        3.7759306891        5.2207375032
O         0.0003181328       13.2369418761        0.4087478433
O         5.6720480481        1.8840847627        2.8130229881
O        11.3511222986        0.0007324171        7.6260567635
O         3.7756917317        0.0007806341        7.6282245481
O        13.2368320529        1.8838265854        2.8136457302
O        13.2368212931        0.0007175589        9.2055058566
O         3.7759648861        1.8845519017        4.3942017431
O         1.8844750106        5.6721614670        6.8019849512
O         0.0004732548       11.3513419298        1.9888531724
O         0.0003762373        5.6721932810        0.4085135880
O         1.8842700376       11.3509920454        5.2184714438
O         0.0007240011        7.5667833692        1.9901687902
O         1.8845069147        9.4627781579        6.7989590488
O         7.5669171316        1.8844808901        4.3972795710
O         9.4625509179        0.0008347243        9.2033668774
O         1.8843943636        7.5668790904        5.2176668457
O         0.0003361810        9.4625038594        0.4124238050
O         9.4628294193        1.8841109956        2.8160707851
O         7.5670650258        0.0002398398        7.6248662977
O         3.7690084315        0.0017219804        1.9896170141
O        13.2380604480        1.8877068967        6.8009801799
O         0.0016819702        5.6559568585        4.3962646555
O         1.8878221544       11.3548623410        9.2054263585
O        13.2378657358        0.0016174863        5.2185577452
O         3.7686637487        1.8878478609        0.4088810442
O         1.8876743856        5.6556785749        2.8140883860
O         0.0015010392       11.3545328261        7.6258354656
O        11.3543811110        1.8878390353        0.4089573220
O         5.6558227076        0.0016470708        5.2186741605
O         5.6561447047        1.8877777302        6.8009024767
O        11.3542977138        0.0017129532        1.9892027724
O         1.8878483373        3.7692094924        9.2055023873
O         0.0016472718       13.2380017385        4.3964402036
O         0.0015382763        3.7692749270        7.6253504840
O         1.8875852176       13.2375960938        2.8140115252
O         3.7695365881        3.7755808465        1.9876344068
O        13.2381353815       13.2369216335        6.8011479593
O        11.3509203602        5.6560729543        4.3961403997
O         5.6721412272       11.3545749940        9.2063771739
O        13.2377704388        3.7759487297        5.2210590992
O         3.7685203047       13.2368755607        0.4096386451
O         5.6722065757        5.6562062600        2.8130212146
O        11.3512944941       11.3539414423        7.6258087827
O        11.3544656306       13.2368724321        0.4097698006
O         5.6562444281        3.7760353375        5.2209169985
O         3.7758171386       11.3538058468        7.6278785246
O        13.2369345801        5.6555564146        2.8139479997
O         5.6559787873       13.2368827521        6.8010469858
O        11.3542925898        3.7755320022        1.9872009325
O        13.2368299389       11.3548634221        9.2061371773
O         3.7760604620        5.6563439027        4.3940733404
O         5.6565849699        5.6721568679        6.8019909185
O        11.3544591625       11.3509234789        1.9892865872
O        13.2368066266        3.7690616440        9.2061687435
O         3.7759841780       13.2378695456        4.3939270039
O        11.3542043659        5.6721353790        0.4094255038
O         5.6559688506       11.3508841634        5.2188395507
O         3.7758690652        3.7690896201        7.6273612160
O        13.2369736069       13.2376552479        2.8138513777
O        13.2378437205       11.3509515038        5.2187043667
O         3.7689916060        5.6721492970        0.4092212065
O         5.6722365211       13.2376428160        2.8131943651
O        11.3512219938        3.7688448307        7.6253282679
O         3.7692898962       11.3509047990        1.9896738055
O        13.2380454087        5.6721679410        6.8018180505
O        11.3509957865       13.2379412470        4.3962457305
O         5.6720952475        3.7694348529        9.2065460648
O         3.7693793736        7.5672067417        1.9907276037
O        13.2380109034        9.4627782591        6.7987565155
O         7.5669182944        5.6565538036        4.3973536515
O         9.4625493839       11.3546039544        9.2031132307
O        13.2378160880        7.5668558597        5.2177253404
O         3.7689278498        9.4626715464        0.4110522942
O         9.4625840748        5.6559564554        2.8161208386
O         7.5669538841       11.3543420195        7.6246817156
O        11.3542908478        9.4626932479        0.4111784706
O         5.6564306228        7.5668749424        5.2175730463
O         5.6564101904        9.4626813732        6.7988838596
O        11.3541101942        7.5672278901        1.9902918941
O         9.4626009874        3.7693880111        9.2032907426
O         7.5668931821       13.2379435125        4.3972319722
O         7.5669604694        3.7696453550        7.6242192765
O         9.4626579982       13.2375590292        2.8162835903
O         7.5830187038        0.0013775985        1.9894788976
O         9.4696321877        1.8876787210        6.8013032397
O         0.0016338956        9.4694920732        4.3966902244
O         1.8878475474        7.5831275368        9.2055389902
O         9.4694001001        0.0015918704        5.2183269457
O         7.5827099636        1.8879040805        0.4102911033
O         1.8877434076        9.4691989553        2.8136743418
O         0.0016931949        7.5825775799        7.6256253658
O         7.5823970047        3.7760592751        1.9874472143
O         9.4697144364       13.2369394804        6.8015423874
O        11.3510122446        9.4694774133        4.3966495192
O         5.6721621058        7.5827591499        9.2059486177
O         9.4691031738        3.7759523920        5.2205325890
O         7.5828614850       13.2369230309        0.4090693461
O         5.6720249918        9.4688919421        2.8127906846
O        11.3510266025        7.5829316595        7.6256466821
O         3.7758182120        7.5826277580        7.6276048039
O        13.2368163829        9.4692275692        2.8134394363
O        13.2367986676        7.5833923812        9.2053131629
O         3.7759706244        9.4692199578        4.3944402468
O         9.4693183081        5.6721462395        6.8022175858
O         7.5826856451       11.3512051373        1.9893476378
O         7.5822462833        5.6721786801        0.4084680034
O         9.4693481934       11.3509721484        5.2183413099
O         7.5824316482        7.5667981852        1.9908043425
O         9.4694118867        9.4627557359        6.7991832902
O         7.5669162811        9.4691298245        4.3975256383
O         9.4625196003        7.5829158783        9.2034160119
O         9.4690514106        7.5668997489        5.2174737622
O         7.5824231612        9.4624827441        0.4123381233
O         9.4628002969        9.4689825845        2.8158224829
O         7.5670693654        7.5820007413        7.6242943921
     192
 i =        7, E =     -5780.8931971628
Ti         0.0012390871        0.0036418860       -0.0000818529
Ti         1.8885775869        1.8887750189        4.8075112575
Ti         0.0013343214        1.8887318684        2.4073148398
Ti         1.8886035531        0.0012767716        7.2072318078
Ti         0.0021850715        3.7770515451        0.0026878485
Ti         1.8888672515       13.2374009937        4.8059121875
Ti        11.3499147481        1.8885449530        2.4090091529
Ti         5.6694862768        0.0012504802        7.2128398873
Ti         1.8885859176        3.7766699393        7.2053874721
Ti         0.0013180719       13.2374140227        2.4100875424
Ti         5.6696606395        1.8886903854        4.8032280463
Ti        11.3490806839        0.0004772475       -0.0014358281
Ti         3.7788224732        0.0005312802       -0.0026682946
Ti        13.2374618638        1.8887380744        4.8091291470
Ti        13.2373641236        0.0013223931        7.2055278826
Ti         3.7766350358        1.8885596764        2.4099534624
Ti         1.8887409158        5.6695403372        4.8117907859
Ti         0.0024465460       11.3470678184        0.0013578304
Ti         0.0012661320        5.6693668006        2.4025188579
Ti         1.8886459345       11.3498542922        7.2062906381
Ti         0.0012215398        7.5692122106        0.0056766254
Ti         1.8885819661        9.4621483915        4.8090441907
Ti         7.5691681745        1.8887349378        2.4119561092
Ti         9.4623168952        0.0012878847        7.2093945529
Ti         1.8886171619        7.5691101946        7.2027828841
Ti         0.0013249920        9.4622562957        2.4054084735
Ti         9.4620335648        1.8887131703        4.8060183997
Ti         7.5680049885        0.0027925032       -0.0056664695
Ti         3.7773388481        3.7786923263       -0.0001135936
Ti        13.2371570163       13.2374446086        4.8075370467
Ti        11.3499615950        5.6695816865        2.4032855080
Ti         5.6694747779       11.3499248303        7.2114042259
Ti        13.2374117631        3.7767006863        7.2033820147
Ti         3.7768287564       13.2374722831        2.4113812381
Ti         5.6694754793        5.6695336848        4.8075188486
Ti        11.3480572693       11.3501376836        0.0000642817
Ti        11.3498400811       13.2375250790        2.4104361547
Ti         5.6694686127        3.7766064992        7.2103362647
Ti         3.7777096625       11.3501655309       -0.0013137224
Ti        13.2372575069        5.6695512201        4.8133804474
Ti         5.6695125386       13.2374342391        4.8016610569
Ti        11.3485816597        3.7790357932        0.0012272444
Ti        13.2374016859       11.3498623252        7.2040907930
Ti         3.7767047225        5.6695436078        2.4044606252
Ti         3.7780209352        7.5677130377        0.0029287456
Ti        13.2374526334        9.4620667776        4.8106322146
Ti         7.5692461612        5.6693632751        2.4073144209
Ti         9.4622479910       11.3499059250        7.2083401856
Ti        13.2373929861        7.5690820729        7.2011163397
Ti         3.7766162902        9.4623237850        2.4080207581
Ti         9.4621957145        5.6695150663        4.8103246098
Ti         7.5688173351       11.3481004545       -0.0043047543
Ti        11.3499857835        9.4623495962        2.4070444300
Ti         5.6694878414        7.5691726928        7.2078951656
Ti         5.6696226648        9.4621389811        4.8047314193
Ti        11.3495413967        7.5673284908        0.0042186214
Ti         9.4622088342        3.7765940924        7.2073046464
Ti         7.5691963777       13.2374167159        2.4141540218
Ti         7.5689668099        3.7767119641       -0.0029491467
Ti         9.4621828023       13.2374204764        4.8044451871
Ti         7.5683604342        7.5694337417        0.0000296906
Ti         9.4620371175        9.4621854914        4.8075405294
Ti         7.5691873784        9.4622287805        2.4101665779
Ti         9.4622624300        7.5691837110        7.2046497121
O         0.0007040147        0.0010909638        1.9879709425
O         1.8840487222        1.8871497752        6.8012822730
O         0.0016195229        1.8846013503        4.3954359264
O         1.8873997451        0.0002038685        9.2096408294
O         1.8845530604        0.0016238458        5.2195408700
O         0.0004599599        1.8878092569        0.4063675899
O         1.8872096936        1.8841936957        2.8137107909
O         0.0016322078        0.0008586776        7.6270555558
O         0.0008133654        3.7754241077        1.9862996681
O         1.8843299520       13.2369184763        6.8014532532
O        11.3513352785        1.8845494972        4.3954266285
O         5.6721003933        0.0005005035        9.2087254593
O         1.8846509071        3.7756536114        5.2218098356
O         0.0002451871       13.2369201009        0.4043408289
O         5.6718452691        1.8843491976        2.8130846213
O        11.3516492725        0.0005141691        7.6267441410
O         3.7751391073        0.0005282087        7.6288580507
O        13.2369139419        1.8840560407        2.8135154121
O        13.2367807390        0.0001979248        9.2095118257
O         3.7756410580        1.8846770010        4.3931929536
O         1.8846225600        5.6720080621        6.8018320922
O         0.0008206944       11.3518938246        1.9881617138
O         0.0003838124        5.6720901519        0.4055368391
O         1.8845121865       11.3513191274        5.2195832692
O         0.0006840950        7.5667458160        1.9902594156
O         1.8842108789        9.4630826601        6.7992179095
O         7.5669439180        1.8847489369        4.3963451084
O         9.4627623315        0.0005428985        9.2070103560
O         1.8846914916        7.5669294103        5.2187618680
O         0.0004148423        9.4625969126        0.4087462051
O         9.4631602993        1.8843709490        2.8157973095
O         7.5673266605        0.0008241497        7.6248477826
O         3.7697626419        0.0016530238        1.9893129869
O        13.2380158958        1.8871917058        6.8013473649
O         0.0016186086        5.6559982223        4.3951780320
O         1.8874673046       11.3549555307        9.2088615980
O        13.2377054460        0.0016280511        5.2195028857
O         3.7682570635        1.8873589620        0.4058851686
O         1.8872822549        5.6555928192        2.8140046455
O         0.0014143652       11.3535602209        7.6266949806
O        11.3548359919        1.8874205753        0.4054647440
O         5.6558194350        0.0016359090        5.2198189470
O         5.6560525689        1.8873049908        6.8009087231
O        11.3538171709        0.0016505838        1.9884105892
O         1.8874856013        3.7686395247        9.2083230106
O         0.0016106301       13.2376808343        4.3956172645
O         0.0014786638        3.7694762417        7.6257601628
O         1.8871255722       13.2377168522        2.8135802708
O         3.7698565207        3.7750839663        1.9874536628
O        13.2376310640       13.2368746689        6.8015839812
O        11.3511950579        5.6561968636        4.3952503565
O         5.6719787890       11.3545166302        9.2089801486
O        13.2377352568        3.7756571903        5.2218684796
O         3.7682383902       13.2368955723        0.4065288011
O         5.6720086256        5.6563994764        2.8131365420
O        11.3518081330       11.3538836219        7.6265314235
O        11.3549578415       13.2368402397        0.4061467083
O         5.6564065993        3.7757411622        5.2217841918
O         3.7753741767       11.3538120183        7.6284862523
O        13.2369434923        5.6555073760        2.8139364433
O         5.6554835120       13.2368884840        6.8010385540
O        11.3536529692        3.7749509611        1.9866192843
O        13.2368715636       11.3551777916        9.2099010285
O         3.7757523077        5.6565651290        4.3932874858
O         5.6563961939        5.6719674727        6.8018592828
O        11.3537016233       11.3513419474        1.9886795313
O        13.2368098848        3.7683296766        9.2091216755
O         3.7756928503       13.2377682251        4.3931767398
O        11.3544564710        5.6721185383        0.4067047593
O         5.6560193994       11.3512047742        5.2197897491
O         3.7754776421        3.7699475177        7.6275291774
O        13.2369827199       13.2377767882        2.8134108682
O        13.2377614785       11.3513255654        5.2195225513
O         3.7691545540        5.6721355033        0.4067984408
O         5.6720815563       13.2377359722        2.8130299422
O        11.3516528889        3.7698053927        7.6255497350
O         3.7697110875       11.3513037081        1.9894885423
O        13.2376328528        5.6719919612        6.8019537779
O        11.3513064536       13.2377787109        4.3954527014
O         5.6718353894        3.7691446879        9.2087492517
O         3.7698796913        7.5673745380        1.9911567805
O        13.2379767204        9.4631199284        6.7992493618
O         7.5669556228        5.6566947648        4.3963914777
O         9.4626473540       11.3544867348        9.2063606663
O        13.2376949365        7.5668909930        5.2187034710
O         3.7687755388        9.4630744669        0.4080708270
O         9.4630036977        5.6560384185        2.8159224979
O         7.5670680011       11.3535723695        7.6245478688
O        11.3546952819        9.4630739456        0.4077092719
O         5.6565418209        7.5669312298        5.2185837146
O         5.6564606245        9.4630230577        6.7990662092
O        11.3538181702        7.5674540855        1.9903998174
O         9.4628431414        3.7689126053        9.2060904723
O         7.5669252604       13.2376988235        4.3963000187
O         7.5670598851        3.7696047194        7.6238505085
O         9.4630377377       13.2376710485        2.8158174134
O         7.5824466865        0.0013056483        1.9892193876
O         9.4693186872        1.8871860605        6.8012651498
O         0.0016197749        9.4693743125        4.3954874989
O         1.8874239538        7.5833563127        9.2083717637
O         9.4692602557        0.0016195863        5.2195702346
O         7.5830413520        1.8876381859        0.4074131441
O         1.8872218800        9.4695051560        2.8137177963
O         0.0016352856        7.5823887709        7.6259332967
O         7.5821303362        3.7755761708        1.9874843627
O         9.4698757959       13.2369249866        6.8014596407
O        11.3512901468        9.4691954046        4.3954643269
O         5.6719205636        7.5826067589        9.2082278715
O         9.4688648946        3.7756592901        5.2216453008
O         7.5833242815       13.2369368723        0.4061047416
O         5.6718193628        9.4689874022        2.8130363945
O        11.3514188611        7.5822138564        7.6256624070
O         3.7754023077        7.5819649992        7.6276149846
O        13.2369204516        9.4695633298        2.8135882096
O        13.2368056776        7.5836276111        9.2082614988
O         3.7756476901        9.4689311837        4.3933228092
O         9.4692727468        5.6719800458        6.8019565812
O         7.5823801057       11.3515421941        1.9893254565
O         7.5822393013        5.6720522749        0.4062615477
O         9.4691395090       11.3512836115        5.2195532693
O         7.5820838001        7.5667655530        1.9912563526
O         9.4690471165        9.4630827235        6.7993073528
O         7.5669487464        9.4689859397        4.3964606068
O         9.4628977527        7.5830598643        9.2062540948
O         9.4688879531        7.5669544619        5.2186331936
O         7.5825607301        9.4627713341        0.4094683232
O         9.4631609209        9.4691654921        2.8156829506
O         7.5672548205        7.5820321555        7.6238831627
     192
 i =        8, E =     -5780.8933080947
Ti         0.0020000145        0.0041530132       -0.0001081484
Ti         1.8887994640        1.8890375018        4.8075094397
Ti         0.0016063653        1.8889682841        2.4087382796
Ti         1.8887022326        0.0015967699        7.2058243946
Ti         0.0024866846        3.7780997131        0.0023088425
Ti         1.8891558727       13.2370297691        4.8061156072
Ti        11.3497034997        1.8887908395        2.4099224861
Ti         5.6695734811        0.0015300310        7.2118364182
Ti         1.8886844306        3.7769769833        7.2048581112
Ti         0.0016241682       13.2372417839        2.4117304014
Ti         5.6697315480        1.8888258814        4.8033053963
Ti        11.3481134565        0.0012568905       -0.0011871175
Ti         3.7796720037        0.0012123137       -0.0022705352
Ti        13.2371172822        1.8890120273        4.8089152943
Ti        13.2369980675        0.0016850555        7.2039892722
Ti         3.7769286734        1.8887802078        2.4104533311
Ti         1.8888905253        5.6696329457        4.8117066068
Ti         0.0029351530       11.3462862915        0.0010870775
Ti         0.0015076937        5.6694722854        2.4034926402
Ti         1.8887528237       11.3496643496        7.2052377054
Ti         0.0017579739        7.5684761944        0.0052227938
Ti         1.8887696248        9.4617418247        4.8089031800
Ti         7.5690382406        1.8888827800        2.4123143771
Ti         9.4619875162        0.0015808845        7.2082021965
Ti         1.8886744077        7.5689400562        7.2024986584
Ti         0.0015775950        9.4619050295        2.4066970194
Ti         9.4616319334        1.8889105043        4.8061496477
Ti         7.5678773921        0.0027619560       -0.0052107288
Ti         3.7778705426        3.7788369382       -0.0001021667
Ti        13.2367532450       13.2370833627        4.8075367526
Ti        11.3497938842        5.6696647005        2.4040160274
Ti         5.6695139232       11.3497770927        7.2107258466
Ti        13.2370606383        3.7770018520        7.2029250469
Ti         3.7771906772       13.2372270171        2.4120351058
Ti         5.6695542557        5.6696246650        4.8075177175
Ti        11.3474347569       11.3491971379        0.0000724234
Ti        11.3495469203       13.2372639426        2.4115401015
Ti         5.6695059740        3.7768062513        7.2099423349
Ti         3.7786365422       11.3494005455       -0.0011649332
Ti        13.2369671501        5.6696662408        4.8130755344
Ti         5.6696551602       13.2371496119        4.8019697909
Ti        11.3483645911        3.7794200031        0.0010957707
Ti        13.2370282948       11.3496442453        7.2029747677
Ti         3.7769129046        5.6696375892        2.4049547209
Ti         3.7782424111        7.5678351755        0.0027918898
Ti        13.2371296546        9.4615942069        4.8102840811
Ti         7.5691530619        5.6694860895        2.4075350565
Ti         9.4618990870       11.3497401432        7.2074518564
Ti        13.2370744695        7.5688955049        7.2008275433
Ti         3.7769042951        9.4621471489        2.4085261539
Ti         9.4618987677        5.6696052820        4.8103877005
Ti         7.5684800309       11.3480641204       -0.0040749997
Ti        11.3497758586        9.4621695531        2.4079000809
Ti         5.6695557971        7.5690651130        7.2075946915
Ti         5.6696905292        9.4618288048        4.8046713377
Ti        11.3491545698        7.5673597391        0.0039880433
Ti         9.4618935805        3.7768368800        7.2067722892
Ti         7.5690686015       13.2372353971        2.4142919483
Ti         7.5686998175        3.7772316983       -0.0028278768
Ti         9.4617254933       13.2370772361        4.8048007342
Ti         7.5684020083        7.5689995263        0.0000491214
Ti         9.4616883319        9.4618548249        4.8075317113
Ti         7.5690665180        9.4619502009        2.4105454809
Ti         9.4619796116        7.5690625824        7.2043019624
O         0.0005945351        0.0011482486        1.9885921320
O         1.8840586308        1.8871485378        6.8006764137
O         0.0015908396        1.8843054752        4.3953664203
O         1.8873390653       -0.0001937063        9.2099296671
O         1.8843175737        0.0015682804        5.2197364679
O         0.0002781429        1.8875717156        0.4057757768
O         1.8871652496        1.8840316282        2.8143975461
O         0.0014046503        0.0007166780        7.6263264411
O         0.0007321759        3.7752177280        1.9867775477
O         1.8837784350       13.2369144284        6.8009174069
O        11.3512513538        1.8843749073        4.3950897021
O         5.6721825425        0.0002733201        9.2084657571
O         1.8845587958        3.7756157368        5.2222996430
O         0.0000942262       13.2368627808        0.4038373835
O         5.6718527271        1.8843781188        2.8140287111
O        11.3517271168        0.0006048254        7.6261053107
O         3.7749098807        0.0006543957        7.6283894064
O        13.2369514655        1.8839547675        2.8141086106
O        13.2369139182       -0.0001671187        9.2103991569
O         3.7755463986        1.8845401907        4.3926604733
O         1.8842563043        5.6719298344        6.8009393372
O         0.0007008294       11.3519781296        1.9887671012