     192
 i =        6, E =     -5780.8929260145
Ti         0.0003867349        0.0008003804        0.0000167147
Ti         0.0001077130        0.0001924597       -0.0000409579
Ti         0.0002320630        0.0002865643        0.0022202595
Ti         0.0002299143        0.0002399137       -0.0023524123
Ti         0.0004519475        0.0006729313       -0.0000553989
Ti         0.0001674207       -0.0002274761        0.0001018217
Ti        -0.0001316670        0.0002828007        0.0020065100
Ti         0.0001661137        0.0002560882       -0.0015266855
Ti         0.0001985970        0.0002742182       -0.0015795394
Ti         0.0002632943       -0.0001531351        0.0026547500
Ti         0.0001130356        0.0000637179       -0.0001124037
Ti        -0.0006127991        0.0003005779        0.0001455993
Ti         0.0009093790        0.0003172446        0.0001289273
Ti        -0.0001909727        0.0001012085       -0.0001557892
Ti        -0.0002644906        0.0002901281       -0.0024531047
Ti         0.0002626610        0.0002482259        0.0016381331
Ti         0.0001086935        0.0000277013        0.0000567234
Ti         0.0005514869       -0.0009241083       -0.0001307642
Ti         0.0002451803        0.0001561025        0.0015562987
Ti         0.0002624776       -0.0001401586       -0.0019798615
Ti         0.0003659952       -0.0003872714       -0.0000215181
Ti         0.0001041381       -0.0002095085        0.0000598664
Ti        -0.0001641214        0.0001694942        0.0013751390
Ti        -0.0003790047        0.0002361786       -0.0018717382
Ti         0.0001514429       -0.0001952969       -0.0013941930
Ti         0.0002289177       -0.0004313990        0.0018406779
Ti        -0.0002569319        0.0001660017       -0.0001116066
Ti        -0.0004289443        0.0004557940        0.0001017915
Ti         0.0005769006        0.0006308956        0.0000206851
Ti        -0.0002516361       -0.0001305124       -0.0000230754
Ti        -0.0001219785        0.0000798191        0.0012303115
Ti         0.0001218645       -0.0001181719       -0.0012551731
Ti        -0.0002463787        0.0002481763       -0.0016484612
Ti         0.0002827500       -0.0002355683        0.0016360172
Ti         0.0000732266        0.0001014589       -0.0000285144
Ti        -0.0007099122       -0.0004420504        0.0000676732
Ti        -0.0001978431       -0.0002266145        0.0019961594
Ti         0.0000948837        0.0001821604       -0.0010095050
Ti         0.0007382403       -0.0004121339        0.0000118730
Ti        -0.0002158766        0.0001198321       -0.0000734220
Ti         0.0000928281       -0.0001359392        0.0000204264
Ti        -0.0004991693        0.0007952486        0.0000612140
Ti        -0.0002678270       -0.0001770448       -0.0021518518
Ti         0.0001961530        0.0000569714        0.0010355073
Ti         0.0005333077       -0.0003485079        0.0000356983
Ti        -0.0001915441       -0.0003126960       -0.0000665198
Ti        -0.0001083281        0.0001203968        0.0008931891
Ti        -0.0003531153       -0.0001075325       -0.0015687680
Ti        -0.0002156664       -0.0001764667       -0.0014599995
Ti         0.0002408445       -0.0002497072        0.0012964439
Ti        -0.0002073856        0.0000133426       -0.0000238689
Ti        -0.0003451181       -0.0004675477       -0.0000626032
Ti        -0.0001008584       -0.0002794513        0.0016304620
Ti         0.0001217786       -0.0001225651       -0.0009386612
Ti         0.0000940020       -0.0002606169       -0.0000110705
Ti        -0.0003944037       -0.0004943656        0.0000612392
Ti        -0.0002975774        0.0002357662       -0.0012697671
Ti        -0.0001432011       -0.0001399817        0.0014695040
Ti        -0.0002851510        0.0004988816        0.0000081896
Ti        -0.0002432515       -0.0002226073        0.0000162169
Ti        -0.0002663798       -0.0003135544        0.0000459728
Ti        -0.0002505077       -0.0001882354       -0.0000102817
Ti        -0.0001540205       -0.0003252726        0.0011042068
Ti        -0.0002984599       -0.0001674206       -0.0011089361
O         0.0000092170       -0.0000779630       -0.0002680411
O        -0.0000314276       -0.0004854488        0.0000040865
O         0.0000238274        0.0000538741       -0.0008882979
O        -0.0008220439       -0.0000577014        0.0015839351
O         0.0000618950        0.0000115583        0.0009815188
O         0.0000297335       -0.0008013927       -0.0016280863
O        -0.0004703618        0.0000544715        0.0000219671
O         0.0000099045        0.0001087271        0.0002552328
O         0.0000439337       -0.0003191412       -0.0000293543
O         0.0000195696       -0.0000140879       -0.0000566898
O         0.0003092405        0.0000274021       -0.0008396124
O        -0.0002524703       -0.0000435083        0.0012380622
O         0.0000446870       -0.0002125984        0.0007334206
O         0.0000032270        0.0000716423       -0.0017155014
O        -0.0001088770        0.0000557568        0.0001093434
O         0.0003892985       -0.0000248021        0.0000805053
O        -0.0003010886       -0.0000296508        0.0000489574
O         0.0000248059        0.0000543677        0.0000690864
O         0.0001466684       -0.0000649659        0.0016457891
O        -0.0002241178        0.0000263168       -0.0007428000
O         0.0000312643       -0.0000865431       -0.0001069921
O         0.0000541444        0.0003701792       -0.0001074377
O         0.0000119313       -0.0001674570       -0.0012358762
O         0.0000461823        0.0003183682        0.0008437088
O        -0.0000022290        0.0000988684        0.0001416081
O        -0.0000275162        0.0003375237       -0.0000432948
O         0.0000830581        0.0000467373       -0.0006020090
O         0.0006413391       -0.0000360665        0.0014239811
O         0.0000526047        0.0001080830        0.0006820210
O         0.0000233110        0.0007346634       -0.0014982977
O         0.0003193690        0.0000542384        0.0000553282
O         0.0001565092        0.0000905348       -0.0001508228
O         0.0001120301       -0.0000413912       -0.0000682134
O        -0.0000169436       -0.0004986082        0.0001033432
O         0.0000117461        0.0000060954       -0.0007142316
O        -0.0008190932       -0.0000113235        0.0014048236
O        -0.0000275798       -0.0000124437        0.0009729836
O        -0.0000293401       -0.0006934838       -0.0011411577
O        -0.0003620505        0.0000020308        0.0000488730
O        -0.0000122551       -0.0001418388        0.0002341894
O         0.0000465413       -0.0007408893       -0.0013756546
O         0.0000034931        0.0000100740        0.0007125368
O        -0.0000103633       -0.0003986450       -0.0000436140
O        -0.0000733773       -0.0000509204       -0.0002158016
O        -0.0006548100       -0.0000630519        0.0011175282
O         0.0000040490       -0.0000522932       -0.0010204492
O         0.0000102741        0.0000343366        0.0000651825
O        -0.0004963235        0.0000154652       -0.0000992517
O         0.0000507012       -0.0002349269        0.0000619464
O        -0.0000786529       -0.0000350478        0.0000697631
O         0.0002910280        0.0000196932       -0.0005278567
O        -0.0002053243       -0.0000287450        0.0010497842
O        -0.0000096558       -0.0002111880        0.0007254941
O        -0.0000128868        0.0000932229       -0.0012095066
O        -0.0001232198        0.0000351810        0.0001311005
O         0.0003788206       -0.0000111874        0.0000847046
O         0.0000510786        0.0000854502       -0.0014589940
O         0.0000248329       -0.0001747370        0.0005197213
O        -0.0002630073       -0.0000022111        0.0000455529
O        -0.0000372939        0.0000033501        0.0001181980
O        -0.0000650436       -0.0000352462       -0.0001045387
O        -0.0000978858       -0.0002819374       -0.0000669062
O         0.0001597245        0.0000191040        0.0014394811
O        -0.0001869960        0.0000307713       -0.0004700187
O        -0.0000240103       -0.0000859654       -0.0001147350
O        -0.0001139743        0.0003285583       -0.0000973662
O         0.0000600200       -0.0000844169        0.0010952906
O        -0.0002343600       -0.0000206183       -0.0006647331
O         0.0000204140       -0.0001309747       -0.0011266902
O         0.0000119624        0.0002905838        0.0005894940
O        -0.0002197764        0.0001311208       -0.0000787578
O         0.0000292700        0.0000136637       -0.0000578249
O        -0.0000166104        0.0003494064        0.0008612874
O         0.0000442946       -0.0001146931       -0.0009580682
O        -0.0001320482        0.0000110802        0.0000086076
O         0.0003309660        0.0001458801       -0.0000559176
O         0.0000653758        0.0003235783        0.0000476932
O        -0.0000640378       -0.0000984649        0.0000023154
O         0.0003554100       -0.0000296933       -0.0007618355
O        -0.0002111701       -0.0000255480        0.0008433627
O         0.0000790029        0.0001112564        0.0002332460
O        -0.0000151537        0.0003770970        0.0000600978
O         0.0000719901        0.0000199670       -0.0004792006
O         0.0005885088       -0.0000366905        0.0012598782
O        -0.0000206746        0.0001020406        0.0006697799
O         0.0000021698        0.0005384116       -0.0010518029
O         0.0003128567        0.0000216507        0.0000811273
O         0.0001175056       -0.0001160239       -0.0001484421
O         0.0000394600        0.0006334170       -0.0012800702
O         0.0000189591        0.0000910638        0.0004979928
O         0.0000062988        0.0002798453       -0.0000732701
O        -0.0000484651        0.0001318517        0.0001366992
O         0.0005201465       -0.0000512500        0.0010298081
O         0.0000793454       -0.0000400817       -0.0006707647
O         0.0001071434        0.0000022631       -0.0002405790
O         0.0003741222        0.0000144665       -0.0000421504
O        -0.0000739986        0.0000013922        0.0000084361
O        -0.0000638931       -0.0004390425       -0.0000304798
O         0.0000245472       -0.0000329472       -0.0007967052
O        -0.0005989828        0.0000232946        0.0010256424
O        -0.0000336603        0.0000241016        0.0008493870
O         0.0000468507       -0.0005863485       -0.0010967574
O        -0.0004558043        0.0000269856        0.0000500858
O         0.0000060949       -0.0000134346       -0.0000260017
O        -0.0000310148       -0.0002640024        0.0001621933
O        -0.0000016615       -0.0000295286       -0.0000889521
O         0.0002959495       -0.0000565316       -0.0007412477
O        -0.0002043191       -0.0000299795        0.0008389078
O        -0.0000449316       -0.0001924603        0.0006304772
O         0.0000675728        0.0000290232       -0.0010224746
O        -0.0000963208        0.0000031654        0.0001297138
O         0.0003141673       -0.0000960761       -0.0001601866
O        -0.0002195927       -0.0000878488       -0.0001603991
O         0.0000175723        0.0000327247        0.0001199541
O         0.0000385651        0.0000247873        0.0010590535
O        -0.0002089181       -0.0000544778       -0.0006437704
O        -0.0000253358       -0.0000838124       -0.0001196263
O        -0.0000365562        0.0002613776        0.0001464423
O         0.0000009210       -0.0001264184       -0.0007936709
O        -0.0000437826        0.0002915470        0.0007237378
O        -0.0000478367        0.0000934646        0.0002808936
O        -0.0000681888        0.0003018361       -0.0000634899
O         0.0000900122       -0.0000337315       -0.0005369168
O         0.0005097568        0.0000118343        0.0009511565
O        -0.0000342683        0.0001047921        0.0005931713
O         0.0000223963        0.0005209859       -0.0010076086
O         0.0002946630        0.0000132277        0.0000660611
O         0.0001229664        0.0000123738       -0.0003010030
     192
 i =        7, E =     -5780.8931971628
Ti         0.0005854709        0.0004021983        0.0000162104
Ti         0.0001777745        0.0002080288       -0.0000387077
Ti         0.0001917737        0.0001976404        0.0008091165
Ti         0.0002062856        0.0002412500       -0.0006859532
Ti         0.0001865598        0.0009212943       -0.0001665070
Ti         0.0002459565       -0.0002444409        0.0001226057
Ti        -0.0001391059        0.0001909991        0.0002355883
Ti         0.0001327941        0.0002137209       -0.0002555455
Ti         0.0001165361        0.0002299982       -0.0000407740
Ti         0.0002169216       -0.0001817468        0.0009170350
Ti         0.0000851455        0.0000994667       -0.0000229904
Ti        -0.0008535084        0.0007747410        0.0001566088
Ti         0.0005212839        0.0006900169        0.0001866652
Ti        -0.0002133154        0.0002111165       -0.0001623099
Ti        -0.0002178019        0.0002703110       -0.0009867802
Ti         0.0002012784        0.0001390170       -0.0001097948
Ti         0.0001237810        0.0000466978       -0.0000298972
Ti         0.0003111783       -0.0004692006       -0.0001617794
Ti         0.0001804442        0.0000683684        0.0000738416
Ti         0.0001836099       -0.0001286659       -0.0004761737
Ti         0.0004128056       -0.0005710036       -0.0002351166
Ti         0.0001548175       -0.0002754796        0.0000050446
Ti        -0.0000790366        0.0000245059       -0.0000749974
Ti        -0.0002575488        0.0002121958       -0.0003458593
Ti         0.0000733373       -0.0000971069        0.0002801053
Ti         0.0001758132       -0.0003549253        0.0005482309
Ti        -0.0002513654        0.0001536975       -0.0000275091
Ti        -0.0001001815        0.0000038017        0.0002714860
Ti         0.0004027307        0.0000479232        0.0000406354
Ti        -0.0002731187       -0.0002223330        0.0000021744
Ti        -0.0000878284       -0.0000136848        0.0001029150
Ti         0.0001046703       -0.0000703689        0.0000715522
Ti        -0.0001815653        0.0002366103        0.0000387788
Ti         0.0002451485       -0.0002076582        0.0002150793
Ti         0.0000592074        0.0000471048       -0.0000169393
Ti        -0.0005091590       -0.0008067782        0.0000167219
Ti        -0.0002169218       -0.0002376116        0.0006336844
Ti         0.0000584168        0.0001477683        0.0002580324
Ti         0.0006657617       -0.0006481724        0.0000484694
Ti        -0.0002032786        0.0000761445       -0.0001583260
Ti         0.0001101749       -0.0001868072        0.0001353616
Ti        -0.0001982919        0.0002089625        0.0000062345
Ti        -0.0002237452       -0.0001631905       -0.0005235264
Ti         0.0001286071       -0.0000180105       -0.0000764120
Ti         0.0000793949        0.0001921931       -0.0000798346
Ti        -0.0002038348       -0.0003273896       -0.0001256128
Ti        -0.0000401826        0.0000413798       -0.0004346295
Ti        -0.0002187567       -0.0000913868       -0.0001989417
Ti        -0.0001616766       -0.0001035901        0.0001478967
Ti         0.0001849813       -0.0001828497       -0.0002467618
Ti        -0.0001830169        0.0000400334       -0.0000194525
Ti        -0.0003157590        0.0000873130        0.0001114903
Ti        -0.0001260675       -0.0002281932        0.0000275080
Ti         0.0000538937       -0.0000380061        0.0002689047
Ti         0.0000724516       -0.0002220270        0.0000072395
Ti        -0.0003748044        0.0001173028       -0.0001030677
Ti        -0.0001373366        0.0001764953        0.0000600217
Ti        -0.0000841827       -0.0001572722       -0.0003755528
Ti        -0.0002445118        0.0005165433        0.0000787461
Ti        -0.0002808244       -0.0002260736        0.0001298336
Ti         0.0000410264       -0.0003408964        0.0000152544
Ti        -0.0002219303       -0.0002277763        0.0000071755
Ti        -0.0000667943       -0.0001880646       -0.0001699013
Ti        -0.0001359971       -0.0000583852        0.0003224566
O        -0.0000188026        0.0000796331        0.0003185373
O         0.0000137304       -0.0002578630       -0.0003090393
O        -0.0000089637       -0.0000508690       -0.0004006491
O        -0.0006367084       -0.0000592578        0.0001592610
O        -0.0000402037       -0.0000333390        0.0004279735
O        -0.0000283871       -0.0008076673       -0.0002824888
O        -0.0002864604       -0.0000216241        0.0003576870
O        -0.0000996228       -0.0000297953       -0.0003566489
O        -0.0000147257       -0.0002218766        0.0004026370
O        -0.0000897945       -0.0000249513       -0.0003706022
O         0.0002018527       -0.0000276890       -0.0002815506
O        -0.0001807176       -0.0000334511       -0.0000775227
O        -0.0000140365       -0.0001524694        0.0002430362
O        -0.0000194004        0.0000693062       -0.0002003358
O        -0.0000386436        0.0000107253        0.0004210977
O         0.0002415930        0.0000190095       -0.0004269562
O        -0.0001877239        0.0000260063       -0.0003994579
O         0.0000694257       -0.0000100644        0.0004050894
O         0.0002361723       -0.0000534563        0.0003372651
O        -0.0001806350       -0.0000213805       -0.0002240177
O        -0.0000602356       -0.0001354910       -0.0003843900
O        -0.0000229229        0.0001837393        0.0003988746
O         0.0000029704       -0.0001988736        0.0001970615
O        -0.0000145998        0.0002193667        0.0003132371
O        -0.0000083196        0.0002395960        0.0004576973
O         0.0000136461        0.0002235802       -0.0004228035
O         0.0000813652       -0.0000436191       -0.0001583394
O         0.0005822431       -0.0000473831       -0.0000287746
O        -0.0000363736        0.0001432699        0.0001276787
O        -0.0000136745        0.0006037842       -0.0000943773
O         0.0001247487       -0.0000109980        0.0004537759
O         0.0000339570       -0.0000255974       -0.0004693739
O        -0.0000113326       -0.0000847170        0.0004185966
O        -0.0000310730       -0.0003394679       -0.0002754549
O         0.0000184363       -0.0000016904       -0.0001630691
O        -0.0005966271        0.0000375324        0.0001134249
O         0.0000450762       -0.0000501720        0.0004960203
O         0.0000025766       -0.0004831186        0.0002256761
O        -0.0000934183        0.0000216177        0.0003370141
O        -0.0000002930        0.0000568670       -0.0003474866
O         0.0000655745       -0.0006214751        0.0000320772
O         0.0000169102        0.0000068202        0.0001866515
O        -0.0000724515       -0.0002057741       -0.0003025363
O         0.0000313132       -0.0001051536        0.0003548876
O        -0.0003900098       -0.0000363301       -0.0001248455
O        -0.0000217990        0.0000455847       -0.0005370644
O         0.0000247164        0.0000198130       -0.0004489076
O        -0.0002376923        0.0000537516        0.0002884491
O        -0.0000043281        0.0000359549        0.0004095438
O         0.0000798302        0.0000306530       -0.0003282090
O         0.0001711875       -0.0000142499       -0.0001108908
O        -0.0001398977        0.0000022931       -0.0002342393
O         0.0000168811       -0.0001719856        0.0002672442
O        -0.0000327648        0.0000268045        0.0000660033
O        -0.0001333651        0.0000059151        0.0003833758
O         0.0001452423        0.0000103709       -0.0004343555
O         0.0000781132        0.0000720761       -0.0001842175
O        -0.0000074007       -0.0001013220        0.0000855565
O        -0.0002308727        0.0000089654       -0.0004057868
O        -0.0000946343        0.0000065008        0.0003966433
O        -0.0000091035       -0.0000212595       -0.0003726618
O         0.0000247329        0.0000084615        0.0003635150
O         0.0002072772        0.0000375237        0.0000762839
O        -0.0001270985       -0.0000173336       -0.0001112315
O         0.0000025946       -0.0000725371       -0.0003618521
O         0.0000305416        0.0003412924        0.0004210345
O         0.0000890479       -0.0000572948       -0.0002018386
O        -0.0002207646        0.0000102934       -0.0002914932
O         0.0000281855       -0.0001500501        0.0001276742
O        -0.0000054780        0.0001781174        0.0000955612
O        -0.0001613599       -0.0000098817       -0.0004558044
O         0.0000065145        0.0000450621        0.0003256187
O         0.0000188605        0.0002392634        0.0003839345
O         0.0000078177       -0.0001305182        0.0002547722
O        -0.0001848863        0.0000278556        0.0003791698
O         0.0000713375       -0.0000138276       -0.0004938948
O        -0.0000145594        0.0002953921        0.0004766114
O         0.0000475894       -0.0001025808       -0.0003675616
O         0.0002488085        0.0000167677       -0.0003592943
O        -0.0000911859       -0.0000215947       -0.0003488480
O        -0.0000156735        0.0000569927        0.0004294585
O        -0.0000303801        0.0002190524       -0.0003868816
O         0.0000714038       -0.0000193327       -0.0000126068
O         0.0005110816        0.0000213485       -0.0000591005
O         0.0000319924        0.0001486098        0.0001733730
O         0.0000103127        0.0003023180        0.0003569515
O         0.0001650076        0.0000161630        0.0004101853
O         0.0000742272        0.0000535728       -0.0004359786
O         0.0000536552        0.0004314033        0.0001948926
O        -0.0000019480        0.0001130762        0.0000451991
O        -0.0000668233        0.0000770603       -0.0004053786
O         0.0000215156        0.0000759653        0.0004213681
O         0.0003376333       -0.0000167123       -0.0002182550
O         0.0000909096        0.0000288691       -0.0001480654
O         0.0000619189        0.0000228838       -0.0004297013
O         0.0003069615        0.0000496720        0.0003925966
O        -0.0000414682        0.0001573061        0.0004350007
O         0.0000530258       -0.0001808586       -0.0002956571
O        -0.0000015310       -0.0000112164       -0.0002580091
O        -0.0002936301       -0.0000212809       -0.0002590350
O         0.0000076792       -0.0000056196        0.0002392114
O         0.0000281772       -0.0003892151        0.0001237374
O        -0.0002515168        0.0000324041        0.0002923286
O        -0.0000364926       -0.0000190722       -0.0004708183
O        -0.0000212538       -0.0001142595        0.0004253072
O        -0.0000385436       -0.0000469189       -0.0003526583
O         0.0001885433        0.0000099659       -0.0001482571
O        -0.0000757933       -0.0000469014       -0.0003136453
O         0.0000249971       -0.0001219325        0.0001320928
O         0.0000448861       -0.0000322322        0.0003277134
O        -0.0000267329        0.0000316731        0.0003564211
O         0.0001445746       -0.0000298454       -0.0004945637
O        -0.0000714910       -0.0000200772       -0.0004449174
O         0.0000589764        0.0000538581        0.0003447083
O         0.0000469121       -0.0000059912       -0.0001945703
O        -0.0001632961        0.0000171325       -0.0001083039
O        -0.0000422771       -0.0001246075       -0.0003427374
O        -0.0000263336        0.0000724085        0.0004919260
O         0.0000045650       -0.0001333225        0.0003959105
O         0.0000195033        0.0001865363        0.0001559302
O        -0.0000343284        0.0001783631        0.0004179725
O         0.0000451916        0.0001559328       -0.0004028810
O         0.0000826500        0.0000009051       -0.0000681995
O         0.0002755672       -0.0000416808       -0.0003332065
O         0.0000164050        0.0001283442        0.0000383800
O         0.0000101620        0.0002281469        0.0002420367
O         0.0000884385        0.0000280931        0.0003928440
O         0.0000101317       -0.0000199065       -0.0004280082
     192
 i =        8, E =     -5780.8933080947
Ti         0.0011307068        0.0008817928        0.0000230385
Ti         0.0002879435        0.0003122404       -0.0000320392
Ti         0.0002082122        0.0003939595        0.0008233719
Ti         0.0004113325        0.0002697819       -0.0006817484
Ti         0.0001224776        0.0015280173       -0.0002079866
Ti         0.0004096376       -0.0002077352        0.0001265639
Ti        -0.0002328613        0.0002796664        0.0000550608
Ti         0.0001903189        0.0001500608        0.0002144428
Ti         0.0000813436        0.0003324736        0.0002813167
Ti         0.0002728393       -0.0002178369        0.0014619345
Ti         0.0000852021        0.0001003428       -0.0000300741
Ti        -0.0018278448        0.0011434958        0.0002001434
Ti         0.0010180153        0.0006805928        0.0001957200
Ti        -0.0002245746        0.0004008180       -0.0001598380
Ti        -0.0002376090        0.0003302216       -0.0015765544
Ti         0.0002859694        0.0001112628       -0.0004135476
Ti         0.0000994065        0.0000623008       -0.0000172445
Ti         0.0005191630       -0.0013121062       -0.0001661389
Ti         0.0001403993        0.0001139636       -0.0004593631
Ti         0.0002927148       -0.0002401928       -0.0004028047
Ti         0.0002761352       -0.0008248722       -0.0002271569
Ti         0.0002129410       -0.0004014383        0.0000499268
Ti        -0.0001010083       -0.0000727372       -0.0004122216
Ti        -0.0004743843        0.0001806051        0.0000759537
Ti         0.0000086277       -0.0001436315        0.0006612311
Ti         0.0001617816       -0.0005486874        0.0001978517
Ti        -0.0003304568        0.0001754434       -0.0000638729
Ti        -0.0001969390       -0.0002332210        0.0002400395
Ti         0.0003094892        0.0000392246        0.0000410942
Ti        -0.0002916439       -0.0002285692        0.0000089704
Ti        -0.0000135366        0.0000397382       -0.0002716010
Ti         0.0001524865       -0.0000336122        0.0004735720
Ti        -0.0001224305        0.0004372728        0.0003606141
Ti         0.0004436621       -0.0001430423       -0.0000533574
Ti         0.0000307543        0.0000134977       -0.0000083109
Ti        -0.0010287990       -0.0013720143       -0.0000006415
Ti        -0.0004099350       -0.0002038335        0.0008563307
Ti         0.0000133869        0.0001140407        0.0004788451
Ti         0.0010384399       -0.0006601929        0.0000723337
Ti        -0.0001400415        0.0000901918       -0.0001179783
Ti         0.0001749927       -0.0001510370        0.0001036783
Ti        -0.0000928628        0.0004318328       -0.0000204806
Ti        -0.0002206916       -0.0003641716       -0.0007217816
Ti         0.0000656407        0.0000000574       -0.0003736057
Ti        -0.0001062643        0.0001916657       -0.0000647428
Ti        -0.0001982125       -0.0004943051       -0.0000641245
Ti        -0.0000214447       -0.0000037350       -0.0005676599
Ti        -0.0003600301       -0.0001016168        0.0001787702
Ti        -0.0000888509       -0.0001887410        0.0006166096
Ti         0.0002055917       -0.0002129203       -0.0005926298
Ti        -0.0001797300        0.0000343390       -0.0000495420
Ti        -0.0003947175        0.0003369877        0.0001449281
Ti        -0.0001482185       -0.0003851673       -0.0003660006
Ti        -0.0000185036       -0.0000037222        0.0004840325
Ti         0.0000620950       -0.0002024657        0.0000482857
Ti        -0.0001113870        0.0000766953       -0.0000798697
Ti        -0.0001079841        0.0001796501        0.0003611230
Ti        -0.0001586192       -0.0001268722       -0.0008773957
Ti        -0.0001993293        0.0003009470        0.0000617615
Ti        -0.0004755284       -0.0001794808        0.0000897227
Ti         0.0000973048       -0.0001553145       -0.0000074703
Ti        -0.0002579561       -0.0002631752        0.0000063049
Ti        -0.0000601931       -0.0000574489       -0.0005156165
Ti        -0.0000650502       -0.0000427773        0.0006172334
O        -0.0000014905       -0.0001407481        0.0000072476
O        -0.0000183037       -0.0004006286       -0.0001466547
O        -0.0000418040        0.0000102094       -0.0003470347
O        -0.0010191143       -0.0000728162        0.0002556949
O         0.0000124115       -0.0000665217        0.0003413022
O        -0.0000634117       -0.0011366410       -0.0003206427
O        -0.0003996110        0.0000028281        0.0001687521
O        -0.0002202397        0.0000228836       -0.0000202065
O         0.0000184385       -0.0004802896        0.0003440086
O        -0.0000016424       -0.0000041395       -0.0002143959
O         0.0003345994        0.0000051199       -0.0000970149
O        -0.0003112451        0.0000187870       -0.0001804424
O         0.0000118665       -0.0002460218       -0.0000189806
O        -0.0001182796        0.0002440424       -0.0005250470
O        -0.0000775706        0.0000365700        0.0002036941
O         0.0006268091       -0.0000140980       -0.0002000055
O        -0.0003784693        0.0000004100       -0.0003273715
O         0.0000871018       -0.0000162884        0.0002520486
O         0.0003440773       -0.0001443310        0.0005613777
O        -0.0002364837        0.0000097238        0.0000396902
O         0.0000384033       -0.0001349397       -0.0001934555
O         0.0000107944        0.0005033790        0.0001809114