#     Step Nr.          Time[fs]        Kin.[a.u.]          Temp[K]            Pot.[a.u.]        Cons Qty[a.u.]        UsedTime[s]
     84515        80228.000000         0.109639449       491.083095792     -1445.954826517     -1446.076103178        33.487245786
     84516        80229.000000         0.122084042       546.823339361     -1445.956788036     -1446.076117981         4.440347116
     84517        80230.000000         0.123199858       551.821162111     -1445.958890465     -1446.076127124         4.020403184
     84518        80231.000000         0.114328772       512.086916291     -1445.961103168     -1446.076129600         3.627432462
     84519        80232.000000         0.118340663       530.056468753     -1445.963178876     -1446.076132475         3.650258415
     84520        80233.000000         0.092254647       413.215302138     -1445.965165535     -1446.076139164         3.642268784
     84521        80234.000000         0.090198955       404.007705660     -1445.966883055     -1446.076147824         4.155549016
     84522        80235.000000         0.118769251       531.976148663     -1445.968593136     -1446.076157911         4.445120619
     84523        80236.000000         0.115711736       518.281313470     -1445.970002071     -1446.076167669         3.632946938
     84524        80237.000000         0.117446797       526.052778104     -1445.970842711     -1446.076168833         4.463326668
     84525        80238.000000         0.132625890       594.041047592     -1445.971327563     -1446.076159581         4.486600736
     84526        80239.000000         0.110057660       492.956295122     -1445.971455000     -1446.076153743         4.050574577
     84527        80240.000000         0.083309183       373.147913318     -1445.971437338     -1446.076149533         3.634219431
     84528        80241.000000         0.097002230       434.480072663     -1445.971537825     -1446.076145998         3.271336225
     84529        80242.000000         0.090711407       406.303016251     -1445.971818663     -1446.076145543         4.435641463
     84530        80243.000000         0.121979767       546.356281287     -1445.972114175     -1446.076145516         3.704447129
     84531        80244.000000         0.108754542       487.119535042     -1445.972316737     -1446.076139366         3.267070730
     84532        80245.000000         0.115017631       515.172367024     -1445.972440929     -1446.076133089         3.273461314
     84533        80246.000000         0.114552955       513.091049136     -1445.972492529     -1446.076134356         3.638040750
     84534        80247.000000         0.105519882       472.631255159     -1445.972404071     -1446.076139332         3.268900266
     84535        80248.000000         0.090711943       406.305418022     -1445.972239739     -1446.076139845         3.736049540
     84536        80249.000000         0.111428153       499.094833750     -1445.971965557     -1446.076133409         4.056078231
     84537        80250.000000         0.113368714       507.786746232     -1445.971618001     -1446.076125423         4.059614617
     84538        80251.000000         0.098603119       441.650570527     -1445.971382326     -1446.076120503         3.635211692
     84539        80252.000000         0.097673522       437.486835148     -1445.971310825     -1446.076128452         3.293474647
     84540        80253.000000         0.118753023       531.903462027     -1445.971282871     -1446.076139819         3.302953755
     84541        80254.000000         0.107968875       483.600474363     -1445.971155316     -1446.076137352         3.267329983
     84542        80255.000000         0.105706325       473.466349973     -1445.970979505     -1446.076127854         3.630557636
     84543        80256.000000         0.122633724       549.285402615     -1445.970780906     -1446.076128079         4.120262778
     84544        80257.000000         0.112982201       506.055529791     -1445.970348563     -1446.076143884         3.692788061
     84545        80258.000000         0.108607987       486.463104035     -1445.969649475     -1446.076153909         4.433284361
     84546        80259.000000         0.098386081       440.678440188     -1445.968799084     -1446.076150367         3.630588084
     84547        80260.000000         0.086376814       386.888057429     -1445.968026794     -1446.076144800         3.632573406
     84548        80261.000000         0.104797591       469.396060434     -1445.967432039     -1446.076141661         3.266180524
     84549        80262.000000         0.117600554       526.741466637     -1445.966748197     -1446.076145264         4.481392744
     84550        80263.000000         0.117895916       528.064416323     -1445.965796322     -1446.076148314         4.429382510
     84551        80264.000000         0.101641100       455.257908505     -1445.964714656     -1446.076147400         3.634672624
     84552        80265.000000         0.107627721       482.072421564     -1445.963623368     -1446.076147026         3.273847830
     84553        80266.000000         0.100799591       451.488726549     -1445.962356333     -1446.076142730         4.103053868
     84554        80267.000000         0.112113525       502.164666886     -1445.961343540     -1446.076137996         4.844058305
     84555        80268.000000         0.124462672       557.477394694     -1445.960279555     -1446.076135316         4.853935010
     84556        80269.000000         0.136244416       610.248688221     -1445.959145866     -1446.076137669         4.461748694
     84557        80270.000000         0.099964185       447.746882189     -1445.957841230     -1446.076141537         4.066421805
     84558        80271.000000         0.098946524       443.188704566     -1445.956471524     -1446.076142598         3.670294903
     84559        80272.000000         0.126829382       568.078061965     -1445.954928529     -1446.076142015         3.661564301
     84560        80273.000000         0.121591624       544.617764051     -1445.953241578     -1446.076136551         3.675662727
     84561        80274.000000         0.105069416       470.613585307     -1445.951453579     -1446.076124332         3.280852154
     84562        80275.000000         0.101135646       452.993941138     -1445.949918982     -1446.076114517         4.083158608
     84563        80276.000000         0.100757668       451.300952889     -1445.948562169     -1446.076112654         4.040347055
     84564        80277.000000         0.097900310       438.502638842     -1445.947538219     -1446.076111484         4.055770215
     84565        80278.000000         0.108394987       485.509060376     -1445.946979418     -1446.076104655         3.628870292
     84566        80279.000000         0.113216395       507.104499507     -1445.946775820     -1446.076099891         4.441911906
     84567        80280.000000         0.095575035       428.087561721     -1445.946836392     -1446.076099344         4.032210836
     84568        80281.000000         0.087649048       392.586486683     -1445.947257825     -1446.076098323         3.991810124
     84569        80282.000000         0.107964714       483.581836233     -1445.948167985     -1446.076098525         4.039709711
     84570        80283.000000         0.122551312       548.916273277     -1445.949512204     -1446.076103414         3.646861404
     84571        80284.000000         0.119173935       533.788758204     -1445.951033651     -1446.076115537         3.695796129
     84572        80285.000000         0.122148546       547.112257200     -1445.952513672     -1446.076128085         3.639489220
     84573        80286.000000         0.131201953       587.663128605     -1445.953733551     -1446.076137274         3.621120178
     84574        80287.000000         0.137884678       617.595541182     -1445.954466595     -1446.076138378         3.266328276
     84575        80288.000000         0.124806224       559.016190308     -1445.954660891     -1446.076136708         3.990188206
     84576        80289.000000         0.125774084       563.351308406     -1445.954539879     -1446.076137425         3.685567685
     84577        80290.000000         0.114428025       512.531479674     -1445.954050314     -1446.076140628         4.419263083
     84578        80291.000000         0.109182588       489.036785324     -1445.953254538     -1446.076136341         4.422466102
     84579        80292.000000         0.086383538       386.918173625     -1445.952489965     -1446.076125418         3.273545745
     84580        80293.000000         0.090323149       404.563981787     -1445.952046542     -1446.076117271         3.283477915
     84581        80294.000000         0.105343258       471.840144779     -1445.951929207     -1446.076114051         4.435619900
     84582        80295.000000         0.101318197       453.811600415     -1445.952030108     -1446.076109608         3.632586841
     84583        80296.000000         0.109758244       491.615190363     -1445.952360439     -1446.076100094         4.053661148
     84584        80297.000000         0.101935599       456.576993362     -1445.953086612     -1446.076093023         3.633181895
     84585        80298.000000         0.127114779       569.356375218     -1445.954316658     -1446.076095636         4.088899172
     84586        80299.000000         0.142924413       640.168880418     -1445.955889314     -1446.076112289         3.676146520
     84587        80300.000000         0.142394771       637.796576406     -1445.957403430     -1446.076125181         4.436609896
     84588        80301.000000         0.129762775       581.216946265     -1445.958898201     -1446.076125715         3.631710502
     84589        80302.000000         0.117441760       526.030220704     -1445.960451668     -1446.076124197         3.341647242
     84590        80303.000000         0.091893323       411.596905060     -1445.962185011     -1446.076129031         3.679554682
     84591        80304.000000         0.090911135       407.197610734     -1445.964275497     -1446.076143969         4.062242674
     84592        80305.000000         0.120543467       539.922990533     -1445.966463538     -1446.076159696         3.653770586
     84593        80306.000000         0.112024120       501.764213292     -1445.968506465     -1446.076161948         3.437245511
     84594        80307.000000         0.115171016       515.859392573     -1445.970388129     -1446.076156670         3.694690785
     84595        80308.000000         0.119571001       535.567245529     -1445.972038754     -1446.076152217         3.626401858
     84596        80309.000000         0.116418864       521.448591886     -1445.973556221     -1446.076149837         3.264574986
     84597        80310.000000         0.118087105       528.920763909     -1445.975023117     -1446.076154194         3.634913494
     84598        80311.000000         0.134630712       603.020790746     -1445.976260978     -1446.076158218         3.632371682
     84599        80312.000000         0.115937668       519.293278892     -1445.977259319     -1446.076156529         6.815208031
     84600        80313.000000         0.096878605       433.926347170     -1445.978020108     -1446.076151894         8.847497012
     84601        80314.000000         0.097251045       435.594533553     -1445.978926446     -1446.076153742         3.682179311
     84602        80315.000000         0.101140528       453.015810223     -1445.980057042     -1446.076165632         3.235247269
     84603        80316.000000         0.116229788       520.601705654     -1445.981355953     -1446.076179561         3.596180440
     84604        80317.000000         0.094472154       423.147676808     -1445.982564456     -1446.076183531         3.756489025
     84605        80318.000000         0.111726397       500.430691414     -1445.983581926     -1446.076179173         3.246330131
     84606        80319.000000         0.108915244       487.839331395     -1445.984377726     -1446.076180062         3.223422303
     84607        80320.000000         0.121591532       544.617350581     -1445.984877046     -1446.076188180         3.281574649
     84608        80321.000000         0.099167510       444.178518433     -1445.984960104     -1446.076195935         3.581098450
     84609        80322.000000         0.122680637       549.495532167     -1445.984602732     -1446.076195271         4.003923480
     84610        80323.000000         0.102387974       458.603213678     -1445.983781709     -1446.076188945         4.019505383
     84611        80324.000000         0.140246825       628.175771381     -1445.982414402     -1446.076184347         3.584385601
     84612        80325.000000         0.140194151       627.939838299     -1445.980411737     -1446.076177587         3.228765432
     84613        80326.000000         0.147618023       661.191903906     -1445.977637099     -1446.076170958         3.223571227
     84614        80327.000000         0.102409651       458.700306975     -1445.974494525     -1446.076164348         4.026287552
     84615        80328.000000         0.118901149       532.566926607     -1445.971097453     -1446.076155927         3.221971398
     84616        80329.000000         0.106140959       475.413105377     -1445.967923610     -1446.076145832         3.600671996
     84617        80330.000000         0.089392860       400.397148079     -1445.965064956     -1446.076130633         3.236946987
     84618        80331.000000         0.100914015       452.001241536     -1445.962601184     -1446.076127180         3.218693926
     84619        80332.000000         0.110802082       496.290616178     -1445.960596833     -1446.076132836         3.222860472
     84620        80333.000000         0.137499765       615.871486510     -1445.958579640     -1446.076142147         3.971714715
     84621        80334.000000         0.114896608       514.630298579     -1445.956918034     -1446.076141981         4.921945334
     84622        80335.000000         0.125338795       561.401615567     -1445.955275092     -1446.076137511         4.402595542
     84623        80336.000000         0.120125369       538.050297077     -1445.953799144     -1446.076143487         4.360469975
     84624        80337.000000         0.125773337       563.347960052     -1445.952398755     -1446.076156771         3.571860793
     84625        80338.000000         0.119905668       537.066242979     -1445.950844872     -1446.076164625         3.235327071
     84626        80339.000000         0.112008553       501.694488707     -1445.949163931     -1446.076156104         3.634242124
     84627        80340.000000         0.124966145       559.732488671     -1445.947403641     -1446.076148162         3.222563799
     84628        80341.000000         0.108185671       484.571520544     -1445.945727386     -1446.076150294         3.572975075
     84629        80342.000000         0.104854670       469.651723972     -1445.944030956     -1446.076157617         3.213251148
     84630        80343.000000         0.121481798       544.125842454     -1445.942353449     -1446.076159720         3.576212702
     84631        80344.000000         0.105745511       473.641863325     -1445.940662652     -1446.076153864         3.300434074
     84632        80345.000000         0.093804288       420.156257256     -1445.939396900     -1446.076146772         3.974026068
     84633        80346.000000         0.118696998       531.652522950     -1445.938315289     -1446.076139128         4.387460040
     84634        80347.000000         0.091957974       411.886482125     -1445.937532315     -1446.076135513         4.353960124
     84635        80348.000000         0.097372423       436.138193983     -1445.937238455     -1446.076134271         3.637591717
     84636        80349.000000         0.102835219       460.606456924     -1445.937388755     -1446.076138539         3.968306111
     84637        80350.000000         0.121326971       543.432362451     -1445.937793991     -1446.076143502         3.568636791
     84638        80351.000000         0.127565048       571.373166664     -1445.938340403     -1446.076141707         3.606817644
     84639        80352.000000         0.080666497       361.311131397     -1445.939128725     -1446.076138371         3.568874604
     84640        80353.000000         0.098793326       442.502522985     -1445.940318635     -1446.076142360         4.057307713
     84641        80354.000000         0.111576311       499.758445684     -1445.941709088     -1446.076152666         3.784618972
     84642        80355.000000         0.131132831       587.353526242     -1445.943081094     -1446.076160124         3.973457906
     84643        80356.000000         0.103549183       463.804352271     -1445.944120615     -1446.076161185         4.729804420
     84644        80357.000000         0.120135190       538.094288719     -1445.945179121     -1446.076161254         4.036271621
     84645        80358.000000         0.128783388       576.830197001     -1445.946318203     -1446.076163206         3.954362981
     84646        80359.000000         0.138785131       621.628735964     -1445.947436363     -1446.076160016         3.632837479
     84647        80360.000000         0.115347066       516.647930086     -1445.948482914     -1446.076153413         3.258103248
     84648        80361.000000         0.116526010       521.928509417     -1445.949535741     -1446.076150619         3.608348930
     84649        80362.000000         0.121408995       543.799754623     -1445.950717183     -1446.076155930         4.509101948
     84650        80363.000000         0.100517222       450.223976334     -1445.951776166     -1446.076161401         4.815208389
     84651        80364.000000         0.114216419       511.583682137     -1445.953030114     -1446.076164160         4.424804968
     84652        80365.000000         0.118316985       529.950413727     -1445.954522653     -1446.076162968         4.016647520
     84653        80366.000000         0.120580356       540.088217648     -1445.955960918     -1446.076165269         4.583734228
     84654        80367.000000         0.115399534       516.882939783     -1445.957510239     -1446.076175560         4.037195831
     84655        80368.000000         0.115505676       517.358356812     -1445.959003464     -1446.076184872         4.043600293
     84656        80369.000000         0.098620943       441.730405174     -1445.960603439     -1446.076191233         4.416191991
     84657        80370.000000         0.094887945       425.010036077     -1445.962010427     -1446.076191437         4.101330403
     84658        80371.000000         0.093288749       417.847117309     -1445.963308056     -1446.076185503         3.251012010
     84659        80372.000000         0.102975475       461.234673567     -1445.964600416     -1446.076184454         3.241853182
     84660        80373.000000         0.121219363       542.950378710     -1445.965923616     -1446.076191701         4.626915796
     84661        80374.000000         0.123495432       553.145059513     -1445.967040224     -1446.076195552         3.238602269
     84662        80375.000000         0.102864052       460.735601898     -1445.967782804     -1446.076181330         3.295325473
     84663        80376.000000         0.089823534       402.326165739     -1445.968334238     -1446.076165172         4.405749750
     84664        80377.000000         0.095452503       427.538730263     -1445.969097245     -1446.076161885         4.376123294
     84665        80378.000000         0.128557301       575.817538372     -1445.970033520     -1446.076169347         4.011291135
     84666        80379.000000         0.112845760       505.444399384     -1445.971047813     -1446.076170583         4.249965902
     84667        80380.000000         0.124187351       556.244214805     -1445.971944455     -1446.076160574         3.991458447
     84668        80381.000000         0.094879144       424.970612818     -1445.972922687     -1446.076154166         3.295976573
     84669        80382.000000         0.121922613       546.100285206     -1445.974109775     -1446.076159582         3.576791926
     84670        80383.000000         0.099751179       446.792814711     -1445.975357486     -1446.076168437         3.575899716
     84671        80384.000000         0.113016009       506.206956151     -1445.976566775     -1446.076171397         3.302457660
     84672        80385.000000         0.086804115       388.801968015     -1445.977709866     -1446.076176341         3.218245081
     84673        80386.000000         0.114328182       512.084276659     -1445.978656049     -1446.076184411         3.584363559
     84674        80387.000000         0.120010564       537.536078611     -1445.979341742     -1446.076196421         3.981201768
     84675        80388.000000         0.102085090       457.246571705     -1445.979459413     -1446.076207894         3.984344845
     84676        80389.000000         0.070443969       315.523681801     -1445.979240204     -1446.076212247         4.091645054
     84677        80390.000000         0.090732464       406.397329974     -1445.978838631     -1446.076214845         4.380107203
     84678        80391.000000         0.103507547       463.617861028     -1445.978034340     -1446.076213866         3.590687766
     84679        80392.000000         0.102749452       460.222296607     -1445.976743436     -1446.076207943         3.624718313
     84680        80393.000000         0.109495094       490.436520322     -1445.974832473     -1446.076199720         3.645106280
     84681        80394.000000         0.126310487       565.753894909     -1445.972259732     -1446.076191869         3.220850443
     84682        80395.000000         0.097079691       434.827026775     -1445.969189539     -1446.076177388         3.222758959
     84683        80396.000000         0.113285450       507.413802343     -1445.965894206     -1446.076155415         3.223665508
     84684        80397.000000         0.124494121       557.618259483     -1445.962275704     -1446.076133299         3.946155625
     84685        80398.000000         0.131583168       589.370619885     -1445.958562237     -1446.076112371         3.636567615
     84686        80399.000000         0.141493403       633.759282566     -1445.955180000     -1446.076092637         3.585722008
     84687        80400.000000         0.121955184       546.246175426     -1445.952216267     -1446.076074069         3.589793753
     84688        80401.000000         0.109645839       491.111718950     -1445.950253335     -1446.076057437         3.993426134
     84689        80402.000000         0.087279954       390.933286499     -1445.949779179     -1446.076051191         3.980368881
     84690        80403.000000         0.103644039       464.229216916     -1445.950780375     -1446.076056108         4.448254169
     84691        80404.000000         0.113298216       507.470984008     -1445.953184424     -1446.076071095         3.575212898
     84692        80405.000000         0.113930096       510.301219015     -1445.956252127     -1446.076087648         4.741680424
     84693        80406.000000         0.107693592       482.367464240     -1445.960529497     -1446.076109352         4.750565099
     84694        80407.000000         0.122104748       546.916083030     -1445.965159493     -1446.076128538         4.448744372
     84695        80408.000000         0.134784421       603.709264445     -1445.970345123     -1446.076153674         4.028124050
     84696        80409.000000         0.148682651       665.960450924     -1445.975385505     -1446.076182294         3.579229339
     84697        80410.000000         0.132769057       594.682300787     -1445.979977587     -1446.076207301         3.577346713
     84698        80411.000000         0.146128425       654.519886878     -1445.983290739     -1446.076213032         4.013301776
     84699        80412.000000         0.144714754       648.187952226     -1445.985492678     -1446.076209674         3.321423417
     84700        80413.000000         0.131327569       588.225772942     -1445.986719384     -1446.076209548         7.331990574
     84701        80414.000000         0.128752639       576.692471637     -1445.987067270     -1446.076209458         3.574569312
     84702        80415.000000         0.116258715       520.731274592     -1445.986627374     -1446.076206479         4.067867540
     84703        80416.000000         0.112983735       506.062401275     -1445.985665474     -1446.076198530         4.373256472
     84704        80417.000000         0.092983504       416.479903262     -1445.984234906     -1446.076185892         4.376142932
     84705        80418.000000         0.095225577       426.522314019     -1445.982803933     -1446.076173811         4.368509068
     84706        80419.000000         0.112461364       503.722661180     -1445.981469751     -1446.076166139         4.059723095
     84707        80420.000000         0.104579781       468.420473667     -1445.980200210     -1446.076169276         3.581977845
     84708        80421.000000         0.123139204       551.549488500     -1445.978984945     -1446.076173366         3.587637256
     84709        80422.000000         0.110363283       494.325201535     -1445.977880076     -1446.076169569         3.264299280
     84710        80423.000000         0.099965883       447.754490898     -1445.976761066     -1446.076165940         3.589812460
     84711        80424.000000         0.108767980       487.179724371     -1445.975894482     -1446.076167863         4.460932449
     84712        80425.000000         0.128323474       574.770211694     -1445.975030344     -1446.076174932         4.386358842
     84713        80426.000000         0.113492285       508.340229650     -1445.974082512     -1446.076181269         4.388896465
     84714        80427.000000         0.123418812       552.801872122     -1445.972986536     -1446.076181441         3.625681317
     84715        80428.000000         0.109944580       492.449801364     -1445.971819022     -1446.076176632         3.303096387
     84716        80429.000000         0.136514088       611.456568692     -1445.970448039     -1446.076168730         3.999768024
     84717        80430.000000         0.104235769       466.879621907     -1445.968948416     -1446.076159517         3.588986276
     84718        80431.000000         0.113429756       508.060161946     -1445.967811535     -1446.076152070         4.379229952
     84719        80432.000000         0.127504677       571.102756805     -1445.966851044     -1446.076149966         4.402915340
     84720        80433.000000         0.118548073       530.985476129     -1445.966003144     -1446.076147026         4.074857706
     84721        80434.000000         0.106782029       478.284504292     -1445.965396094     -1446.076138966         3.603131731
     84722        80435.000000         0.103066886       461.644108498     -1445.965169130     -1446.076132422         3.615842796
     84723        80436.000000         0.104757676       469.217278824     -1445.965470139     -1446.076131644         3.582802636
     84724        80437.000000         0.116381122       521.279541946     -1445.966363318     -1446.076137297         3.222806148
     84725        80438.000000         0.123485595       553.100996583     -1445.967786184     -1446.076143877         3.678767403
     84726        80439.000000         0.109360701       489.834564885     -1445.969521641     -1446.076144464         4.388531440
     84727        80440.000000         0.132735497       594.531982485     -1445.971882440     -1446.076149527         4.390485083
     84728        80441.000000         0.107905767       483.317810636     -1445.974560009     -1446.076171758         3.582659884
     84729        80442.000000         0.104931219       469.994592321     -1445.976960291     -1446.076195732         4.081055601
     84730        80443.000000         0.116152692       520.256388513     -1445.979020447     -1446.076210051         3.611888513
     84731        80444.000000         0.112656854       504.598276843     -1445.980668456     -1446.076218083         3.221466948
     84732        80445.000000         0.115936687       519.288886224     -1445.981817264     -1446.076223166         3.221146538
     84733        80446.000000         0.108626309       486.545169860     -1445.982373266     -1446.076228613         3.995362762
     84734        80447.000000         0.117660117       527.008254819     -1445.982292326     -1446.076238219         4.071666987
     84735        80448.000000         0.114843302       514.391537413     -1445.981361718     -1446.076241037         3.587338217
     84736        80449.000000         0.095428994       427.433431596     -1445.979861675     -1446.076233072         3.988674612
     84737        80450.000000         0.126072247       564.686801886     -1445.977770899     -1446.076222261         4.385880421
     84738        80451.000000         0.121315264       543.379927438     -1445.974687094     -1446.076214878         3.611088027
     84739        80452.000000         0.097705565       437.630361358     -1445.971434371     -1446.076207734         4.747332681
     84740        80453.000000         0.108701686       486.882790027     -1445.967526131     -1446.076193209         4.400568109
     84741        80454.000000         0.118030801       528.668578323     -1445.963573781     -1446.076171822         4.379813954
     84742        80455.000000         0.121594875       544.632323461     -1445.959651405     -1446.076152005         3.602525277