 DBCSR| CPU Multiplication driver                                           XSMM (U)
 DBCSR| Multrec recursion limit                                              512 (U)
 DBCSR| Multiplication stack size                                           1000 (D)
 DBCSR| Maximum elements for images                                    UNLIMITED (U)
 DBCSR| Multiplicative factor virtual images                                   1 (U)
 DBCSR| Use multiplication densification                                       T (D)
 DBCSR| Multiplication size stacks                                             3 (U)
 DBCSR| Use memory pool for CPU allocation                                     F (U)
 DBCSR| Number of 3D layers                                               SINGLE (U)
 DBCSR| Use MPI memory allocation                                              F (U)
 DBCSR| Use RMA algorithm                                                      F (U)
 DBCSR| Use Communication thread                                               T (U)
 DBCSR| Communication thread load                                             87 (D)
 DBCSR| MPI: My process id                                                     0
 DBCSR| MPI: Number of processes                                             128
 DBCSR| OMP: Current number of threads                                         1
 DBCSR| OMP: Max number of threads                                             1
 DBCSR| Split modifier for TAS multiplication algorithm                  1.0E+00 (U)


  **** **** ******  **  PROGRAM STARTED AT               2025-06-19 09:29:12.831
 ***** ** ***  *** **   PROGRAM STARTED ON                             nid004415
 **    ****   ******    PROGRAM STARTED BY                                cahart
 ***** **    ** ** **   PROGRAM PROCESS ID                                167300
  **** **  *******  **  PROGRAM STARTED IN /mnt/lustre/a2fs-work2/work/e05/e05/c
                                           ahart/postdoc2/work/group/tio2/anatas
                                           e/cell-441/geo-opt/mp-390/hole/from-n
                                           eutral/pbe-u-o/u-2.0

 CP2K| version string:                                       CP2K version 2024.3
 CP2K| source code revision number:                                  git:6712648
 CP2K| cp2kflags: omp libint fftw3 libxc libgrpp elpa parallel scalapack cosma x
 CP2K|            smm plumed2 spglib mkl sirius libvori libbqb libvdwxc hdf5
 CP2K| is freely available from                            https://www.cp2k.org/
 CP2K| Program compiled at                       Thu 12 Sep 2024 10:20:47 AM BST
 CP2K| Program compiled on                                                  ln04
 CP2K| Program compiled for                                                local
 CP2K| Data directory path    /mnt/lustre/a2fs-work1/work/y07/shared/apps/core/c
 CP2K| Input file name                                                 input.inp

 GLOBAL| Force Environment number                                              1
 GLOBAL| Basis set file name                                        BASIS_MOLOPT
 GLOBAL| Potential file name                                      GTH_POTENTIALS
 GLOBAL| MM Potential file name                                     MM_POTENTIAL
 GLOBAL| Coordinate file name                                         system.xyz
 GLOBAL| Method name                                                        CP2K
 GLOBAL| Project name                                                       tio2
 GLOBAL| Run type                                                        GEO_OPT
 GLOBAL| FFT library                                                       FFTW3
 GLOBAL| Diagonalization library                                            ELPA
 GLOBAL| DGEMM library                                                      BLAS
 GLOBAL| Minimum number of eigenvectors for ELPA usage                        16
 GLOBAL| Orthonormality check for eigenvectors                          DISABLED
 GLOBAL| Matrix multiplication library                                     COSMA
 GLOBAL| All-to-all communication in single precision                          F
 GLOBAL| FFTs using library dependent lengths                                  F
 GLOBAL| Grid backend                                                       AUTO
 GLOBAL| Global print level                                               MEDIUM
 GLOBAL| MPI I/O enabled                                                       T
 GLOBAL| Total number of message passing processes                           128
 GLOBAL| Number of threads for this process                                    1
 GLOBAL| This output is from process                                           0
 GLOBAL| Stack size for threads created by OpenMP (OMP_STACKSIZE)        default
 GLOBAL| CPU model name                          AMD EPYC 7742 64-Core Processor
 GLOBAL| CPUID                                                              1002

 MEMORY| system memory details [Kb]
 MEMORY|                        rank 0           min           max       average
 MEMORY| MemTotal            263341976     263341976     263341976     263341976
 MEMORY| MemFree             236110808     236110808     236110808     236110808
 MEMORY| Buffers                     0             0             0             0
 MEMORY| Cached                1623392       1623392       1623392       1623392
 MEMORY| Slab                  5158300       5158292       5158300       5158299
 MEMORY| SReclaimable           113976        113976        113976        113976
 MEMORY| MemLikelyFree       237848176     237848176     237848176     237848176


 *** Fundamental physical constants (SI units) ***

 *** Literature: B. J. Mohr and B. N. Taylor,
 ***             CODATA recommended values of the fundamental physical
 ***             constants: 2006, Web Version 5.1
 ***             http://physics.nist.gov/constants

 Speed of light in vacuum [m/s]                             2.99792458000000E+08
 Magnetic constant or permeability of vacuum [N/A**2]       1.25663706143592E-06
 Electric constant or permittivity of vacuum [F/m]          8.85418781762039E-12
 Planck constant (h) [J*s]                                  6.62606896000000E-34
 Planck constant (h-bar) [J*s]                              1.05457162825177E-34
 Elementary charge [C]                                      1.60217648700000E-19
 Electron mass [kg]                                         9.10938215000000E-31
 Electron g factor [ ]                                     -2.00231930436220E+00
 Proton mass [kg]                                           1.67262163700000E-27
 Fine-structure constant                                    7.29735253760000E-03
 Rydberg constant [1/m]                                     1.09737315685270E+07
 Avogadro constant [1/mol]                                  6.02214179000000E+23
 Boltzmann constant [J/K]                                   1.38065040000000E-23
 Atomic mass unit [kg]                                      1.66053878200000E-27
 Bohr radius [m]                                            5.29177208590000E-11

 *** Conversion factors ***

 [u] -> [a.u.]                                              1.82288848426455E+03
 [Angstrom] -> [Bohr] = [a.u.]                              1.88972613288564E+00
 [a.u.] = [Bohr] -> [Angstrom]                              5.29177208590000E-01
 [a.u.] -> [s]                                              2.41888432650478E-17
 [a.u.] -> [fs]                                             2.41888432650478E-02
 [a.u.] -> [J]                                              4.35974393937059E-18
 [a.u.] -> [N]                                              8.23872205491840E-08
 [a.u.] -> [K]                                              3.15774647902944E+05
 [a.u.] -> [kJ/mol]                                         2.62549961709828E+03
 [a.u.] -> [kcal/mol]                                       6.27509468713739E+02
 [a.u.] -> [Pa]                                             2.94210107994716E+13
 [a.u.] -> [bar]                                            2.94210107994716E+08
 [a.u.] -> [atm]                                            2.90362800883016E+08
 [a.u.] -> [eV]                                             2.72113838565563E+01
 [a.u.] -> [Hz]                                             6.57968392072181E+15
 [a.u.] -> [1/cm] (wave numbers)                            2.19474631370540E+05
 [a.u./Bohr**2] -> [1/cm]                                   5.14048714338585E+03
 

 CELL_TOP| Volume [angstrom^3]:                                      2198.132028
 CELL_TOP| Vector a [angstrom    15.120     0.000     0.000   |a| =    15.120000
 CELL_TOP| Vector b [angstrom     0.000    15.120     0.000   |b| =    15.120000
 CELL_TOP| Vector c [angstrom     0.000     0.000     9.615   |c| =     9.615020
 CELL_TOP| Angle (b,c), alpha [degree]:                                90.000000
 CELL_TOP| Angle (a,c), beta  [degree]:                                90.000000
 CELL_TOP| Angle (a,b), gamma [degree]:                                90.000000
 CELL_TOP| Requested initial symmetry:                       MONOCLINIC_GAMMA_AB
 CELL_TOP| Numerically orthorhombic:                                         YES
 CELL_TOP| Periodicity                                                       XYZ

 *** WARNING in atoms_input.F:123 :: Overwriting coordinates. Active    ***
 *** coordinates read from &COORD section. Active coordinates READ from ***
 *** &COORD section                                                     ***


 GENERATE|  Preliminary Number of Bonds generated:                             0
 GENERATE|  Achieved consistency in connectivity generation.

 CELL| Volume [angstrom^3]:                                          2198.132028
 CELL| Vector a [angstrom]:      15.120     0.000     0.000   |a| =    15.120000
 CELL| Vector b [angstrom]:       0.000    15.120     0.000   |b| =    15.120000
 CELL| Vector c [angstrom]:       0.000     0.000     9.615   |c| =     9.615020
 CELL| Angle (b,c), alpha [degree]:                                    90.000000
 CELL| Angle (a,c), beta  [degree]:                                    90.000000
 CELL| Angle (a,b), gamma [degree]:                                    90.000000
 CELL| Requested initial symmetry:                           MONOCLINIC_GAMMA_AB
 CELL| Numerically orthorhombic:                                             YES
 CELL| Periodicity                                                           XYZ

 CELL_REF| Volume [angstrom^3]:                                      2198.132028
 CELL_REF| Vector a [angstrom    15.120     0.000     0.000   |a| =    15.120000
 CELL_REF| Vector b [angstrom     0.000    15.120     0.000   |b| =    15.120000
 CELL_REF| Vector c [angstrom     0.000     0.000     9.615   |c| =     9.615020
 CELL_REF| Angle (b,c), alpha [degree]:                                90.000000
 CELL_REF| Angle (a,c), beta  [degree]:                                90.000000
 CELL_REF| Angle (a,b), gamma [degree]:                                90.000000
 CELL_REF| Requested initial symmetry:                       MONOCLINIC_GAMMA_AB
 CELL_REF| Numerically orthorhombic:                                         YES
 CELL_REF| Periodicity                                                       XYZ

 *******************************************************************************
 *******************************************************************************
 **                                                                           **
 **     #####                         ##              ##                      **
 **    ##   ##            ##          ##              ##                      **
 **   ##     ##                       ##            ######                    **
 **   ##     ##  ##   ##  ##   #####  ##  ##   ####   ##    #####    #####    **
 **   ##     ##  ##   ##  ##  ##      ## ##   ##      ##   ##   ##  ##   ##   **
 **   ##  ## ##  ##   ##  ##  ##      ####     ###    ##   ######   ######    **
 **    ##  ###   ##   ##  ##  ##      ## ##      ##   ##   ##       ##        **
 **     #######   #####   ##   #####  ##  ##  ####    ##    #####   ##        **
 **           ##                                                    ##        **
 **                                                                           **
 **                                                ... make the atoms dance   **
 **                                                                           **
 **            Copyright (C) by CP2K developers group (2000-2024)             **
 **                      J. Chem. Phys. 152, 194103 (2020)                    **
 **                                                                           **
 *******************************************************************************

 DFT| Spin unrestricted (spin-polarized) Kohn-Sham calculation               UKS
 DFT| Multiplicity                                                             2
 DFT| Number of spin states                                                    2
 DFT| Charge                                                                   1
 DFT| Self-interaction correction (SIC)                                       NO
 DFT| Cutoffs: density                                              1.000000E-10
 DFT|          gradient                                             1.000000E-10
 DFT|          tau                                                  1.000000E-10
 DFT|          cutoff_smoothing_range                               0.000000E+00
 DFT| XC density smoothing                                                  NONE
 DFT| XC derivatives                                                          PW

 DFT+U| Method                                                          MULLIKEN
 DFT+U| Check atomic kind information for details

 FUNCTIONAL| PBE:
 FUNCTIONAL| J.P.Perdew, K.Burke, M.Ernzerhof, Phys. Rev. Letter, vol. 77, n 18,
 FUNCTIONAL|  pp. 3865-3868, (1996) {spin polarized}                            


 QS| Method:                                                                 GPW
 QS| Density plane wave grid type                        NON-SPHERICAL FULLSPACE
 QS| Number of grid levels:                                                    4
 QS| Density cutoff [a.u.]:                                                300.0
 QS| Multi grid cutoff [a.u.]: 1) grid level                               300.0
 QS|                           2) grid level                               100.0
 QS|                           3) grid level                                33.3
 QS|                           4) grid level                                11.1
 QS| Grid level progression factor:                                          3.0
 QS| Relative density cutoff [a.u.]:                                        20.0
 QS| Interaction thresholds: eps_pgf_orb:                                1.0E-06
 QS|                         eps_filter_matrix:                          0.0E+00
 QS|                         eps_core_charge:                            1.0E-14
 QS|                         eps_rho_gspace:                             1.0E-12
 QS|                         eps_rho_rspace:                             1.0E-12
 QS|                         eps_gvg_rspace:                             1.0E-06
 QS|                         eps_ppl:                                    1.0E-02
 QS|                         eps_ppnl:                                   1.0E-08


 ATOMIC KIND INFORMATION

  1. Atomic kind: Ti                                    Number of atoms:      64

     Orbital Basis Set                                    DZVP-MOLOPT-SR-GTH-q12

       Number of orbital shell sets:                                           1
       Number of orbital shells:                                               8
       Number of primitive Cartesian functions:                                6
       Number of Cartesian basis functions:                                   31
       Number of spherical basis functions:                                   26
       Norm type:                                                              2

       Normalised Cartesian orbitals:

                        Set   Shell   Orbital            Exponent    Coefficient

                          1       1    2s                7.884570       0.015554
                                                         3.894698       0.963603
                                                         1.513589      -0.631435
                                                         0.596768      -0.343022
                                                         0.222222      -0.006534
                                                         0.077078       0.007652

                          1       2    3s                7.884570      -0.009340
                                                         3.894698       0.212624
                                                         1.513589      -0.258368
                                                         0.596768      -0.226206
                                                         0.222222       0.039438
                                                         0.077078       0.107179

                          1       3    4s                7.884570       0.276563
                                                         3.894698       0.105452
                                                         1.513589       0.085149
                                                         0.596768       0.882541
                                                         0.222222      -0.696223
                                                         0.077078       0.156638

                          1       4    3px               7.884570      -2.034794
                                                         3.894698       0.782008
                                                         1.513589       1.253903
                                                         0.596768       0.347823
                                                         0.222222       0.016778
                                                         0.077078      -0.000433
                          1       4    3py               7.884570      -2.034794
                                                         3.894698       0.782008
                                                         1.513589       1.253903
                                                         0.596768       0.347823
                                                         0.222222       0.016778
                                                         0.077078      -0.000433
                          1       4    3pz               7.884570      -2.034794
                                                         3.894698       0.782008
                                                         1.513589       1.253903
                                                         0.596768       0.347823
                                                         0.222222       0.016778
                                                         0.077078      -0.000433

                          1       5    4px               7.884570       0.376572
                                                         3.894698      -0.182875
                                                         1.513589      -0.474776
                                                         0.596768      -0.081757
                                                         0.222222       0.064432
                                                         0.077078       0.047279
                          1       5    4py               7.884570       0.376572
                                                         3.894698      -0.182875
                                                         1.513589      -0.474776
                                                         0.596768      -0.081757
                                                         0.222222       0.064432
                                                         0.077078       0.047279
                          1       5    4pz               7.884570       0.376572
                                                         3.894698      -0.182875
                                                         1.513589      -0.474776
                                                         0.596768      -0.081757
                                                         0.222222       0.064432
                                                         0.077078       0.047279

                          1       6    4dx2              7.884570       3.047350
                                                         3.894698       3.289529
                                                         1.513589       1.060616
                                                         0.596768       0.249930
                                                         0.222222       0.038806
                                                         0.077078       0.002319
                          1       6    4dxy              7.884570       5.278165
                                                         3.894698       5.697631
                                                         1.513589       1.837041
                                                         0.596768       0.432892
                                                         0.222222       0.067214
                                                         0.077078       0.004017
                          1       6    4dxz              7.884570       5.278165
                                                         3.894698       5.697631
                                                         1.513589       1.837041
                                                         0.596768       0.432892
                                                         0.222222       0.067214
                                                         0.077078       0.004017
                          1       6    4dy2              7.884570       3.047350
                                                         3.894698       3.289529
                                                         1.513589       1.060616
                                                         0.596768       0.249930
                                                         0.222222       0.038806
                                                         0.077078       0.002319
                          1       6    4dyz              7.884570       5.278165
                                                         3.894698       5.697631
                                                         1.513589       1.837041
                                                         0.596768       0.432892
                                                         0.222222       0.067214
                                                         0.077078       0.004017
                          1       6    4dz2              7.884570       3.047350
                                                         3.894698       3.289529
                                                         1.513589       1.060616
                                                         0.596768       0.249930
                                                         0.222222       0.038806
                                                         0.077078       0.002319

                          1       7    5dx2              7.884570      -2.119015
                                                         3.894698      -1.237751
                                                         1.513589      -0.746777
                                                         0.596768      -0.071514
                                                         0.222222       0.004086
                                                         0.077078       0.017595
                          1       7    5dxy              7.884570      -3.670241
                                                         3.894698      -2.143848
                                                         1.513589      -1.293455
                                                         0.596768      -0.123865
                                                         0.222222       0.007077
                                                         0.077078       0.030475
                          1       7    5dxz              7.884570      -3.670241
                                                         3.894698      -2.143848
                                                         1.513589      -1.293455
                                                         0.596768      -0.123865
                                                         0.222222       0.007077
                                                         0.077078       0.030475
                          1       7    5dy2              7.884570      -2.119015
                                                         3.894698      -1.237751
                                                         1.513589      -0.746777
                                                         0.596768      -0.071514
                                                         0.222222       0.004086
                                                         0.077078       0.017595
                          1       7    5dyz              7.884570      -3.670241
                                                         3.894698      -2.143848
                                                         1.513589      -1.293455
                                                         0.596768      -0.123865
                                                         0.222222       0.007077
                                                         0.077078       0.030475
                          1       7    5dz2              7.884570      -2.119015
                                                         3.894698      -1.237751
                                                         1.513589      -0.746777
                                                         0.596768      -0.071514
                                                         0.222222       0.004086
                                                         0.077078       0.017595

                          1       8    5fx3              7.884570      -0.342058
                                                         3.894698       0.375798
                                                         1.513589      -0.706469
                                                         0.596768      -0.229994
                                                         0.222222      -0.012723
                                                         0.077078       0.003932
                          1       8    5fx2y             7.884570      -0.764866
                                                         3.894698       0.840310
                                                         1.513589      -1.579712
                                                         0.596768      -0.514282
                                                         0.222222      -0.028450
                                                         0.077078       0.008792
                          1       8    5fx2z             7.884570      -0.764866
                                                         3.894698       0.840310
                                                         1.513589      -1.579712
                                                         0.596768      -0.514282
                                                         0.222222      -0.028450
                                                         0.077078       0.008792
                          1       8    5fxy2             7.884570      -0.764866
                                                         3.894698       0.840310
                                                         1.513589      -1.579712
                                                         0.596768      -0.514282
                                                         0.222222      -0.028450
                                                         0.077078       0.008792
                          1       8    5fxyz             7.884570      -1.324787
                                                         3.894698       1.455460
                                                         1.513589      -2.736142
                                                         0.596768      -0.890763
                                                         0.222222      -0.049276
                                                         0.077078       0.015229
                          1       8    5fxz2             7.884570      -0.764866
                                                         3.894698       0.840310
                                                         1.513589      -1.579712
                                                         0.596768      -0.514282
                                                         0.222222      -0.028450
                                                         0.077078       0.008792
                          1       8    5fy3              7.884570      -0.342058
                                                         3.894698       0.375798
                                                         1.513589      -0.706469
                                                         0.596768      -0.229994
                                                         0.222222      -0.012723
                                                         0.077078       0.003932
                          1       8    5fy2z             7.884570      -0.764866
                                                         3.894698       0.840310
                                                         1.513589      -1.579712
                                                         0.596768      -0.514282
                                                         0.222222      -0.028450
                                                         0.077078       0.008792
                          1       8    5fyz2             7.884570      -0.764866
                                                         3.894698       0.840310
                                                         1.513589      -1.579712
                                                         0.596768      -0.514282
                                                         0.222222      -0.028450
                                                         0.077078       0.008792
                          1       8    5fz3              7.884570      -0.342058
                                                         3.894698       0.375798
                                                         1.513589      -0.706469
                                                         0.596768      -0.229994
                                                         0.222222      -0.012723
                                                         0.077078       0.003932

       Atomic covalent radius [Angstrom]:                                  1.320

       Atomic van der Waals radius [Angstrom]:                             1.760

     GTH Potential information for                                   GTH-PBE-q12

       Description:                       Goedecker-Teter-Hutter pseudopotential
                                           Goedecker et al., PRB 54, 1703 (1996)
                                          Hartwigsen et al., PRB 58, 3641 (1998)
                                                      Krack, TCA 114, 145 (2005)

       Gaussian exponent of the core charge distribution:               3.462604
       Electronic configuration (s p d ...):                           4   6   2

       Parameters of the local part of the GTH pseudopotential:

                          rloc        C1          C2          C3          C4
                        0.380000    8.711442   -0.700287

       Parameters of the non-local part of the GTH pseudopotential:

                   l      r(l)      h(i,j,l)

                   0    0.337771    2.575264    3.692971
                                    3.692971   -4.767605
                   1    0.242531   -4.630541    8.870875
                                    8.870875  -10.496161
                   2    0.243317   -9.406653

  2. Atomic kind: O                                     Number of atoms:     128

     Orbital Basis Set                                     DZVP-MOLOPT-SR-GTH-q6

       Number of orbital shell sets:                                           1
       Number of orbital shells:                                               5
       Number of primitive Cartesian functions:                                5
       Number of Cartesian basis functions:                                   14
       Number of spherical basis functions:                                   13
       Norm type:                                                              2

       Normalised Cartesian orbitals:

                        Set   Shell   Orbital            Exponent    Coefficient

                          1       1    2s               10.389228       0.396646
                                                         3.849621       0.208811
                                                         1.388401      -0.301641
                                                         0.496955      -0.274061
                                                         0.162492      -0.033677

                          1       2    3s               10.389228       0.303673
                                                         3.849621       0.240943
                                                         1.388401      -0.313066
                                                         0.496955      -0.043055
                                                         0.162492       0.213991

                          1       3    3px              10.389228      -1.530415
                                                         3.849621      -1.371928
                                                         1.388401      -0.761951
                                                         0.496955      -0.253695
                                                         0.162492      -0.035541
                          1       3    3py              10.389228      -1.530415
                                                         3.849621      -1.371928
                                                         1.388401      -0.761951
                                                         0.496955      -0.253695
                                                         0.162492      -0.035541
                          1       3    3pz              10.389228      -1.530415
                                                         3.849621      -1.371928
                                                         1.388401      -0.761951
                                                         0.496955      -0.253695
                                                         0.162492      -0.035541

                          1       4    4px              10.389228      -0.565392
                                                         3.849621      -0.038231
                                                         1.388401      -0.382373
                                                         0.496955       0.179070
                                                         0.162492       0.122714
                          1       4    4py              10.389228      -0.565392
                                                         3.849621      -0.038231
                                                         1.388401      -0.382373
                                                         0.496955       0.179070
                                                         0.162492       0.122714
                          1       4    4pz              10.389228      -0.565392
                                                         3.849621      -0.038231
                                                         1.388401      -0.382373
                                                         0.496955       0.179070
                                                         0.162492       0.122714

                          1       5    4dx2             10.389228       1.867377
                                                         3.849621       0.670994
                                                         1.388401       1.353441
                                                         0.496955       0.273538
                                                         0.162492       0.006620
                          1       5    4dxy             10.389228       3.234392
                                                         3.849621       1.162195
                                                         1.388401       2.344229
                                                         0.496955       0.473781
                                                         0.162492       0.011466
                          1       5    4dxz             10.389228       3.234392
                                                         3.849621       1.162195
                                                         1.388401       2.344229
                                                         0.496955       0.473781
                                                         0.162492       0.011466
                          1       5    4dy2             10.389228       1.867377
                                                         3.849621       0.670994
                                                         1.388401       1.353441
                                                         0.496955       0.273538
                                                         0.162492       0.006620
                          1       5    4dyz             10.389228       3.234392
                                                         3.849621       1.162195
                                                         1.388401       2.344229
                                                         0.496955       0.473781
                                                         0.162492       0.011466
                          1       5    4dz2             10.389228       1.867377
                                                         3.849621       0.670994
                                                         1.388401       1.353441
                                                         0.496955       0.273538
                                                         0.162492       0.006620

       Atomic covalent radius [Angstrom]:                                  0.730

       Atomic van der Waals radius [Angstrom]:                             1.520

     GTH Potential information for                                    GTH-PBE-q6

       Description:                       Goedecker-Teter-Hutter pseudopotential
                                           Goedecker et al., PRB 54, 1703 (1996)
                                          Hartwigsen et al., PRB 58, 3641 (1998)
                                                      Krack, TCA 114, 145 (2005)

       Gaussian exponent of the core charge distribution:               8.360253
       Electronic configuration (s p d ...):                               2   4

       Parameters of the local part of the GTH pseudopotential:

                          rloc        C1          C2          C3          C4
                        0.244554  -16.667215    2.487311

       Parameters of the non-local part of the GTH pseudopotential:

                   l      r(l)      h(i,j,l)

                   0    0.220956   18.337458
                   1    0.211332

     A DFT+U correction is applied to atoms of this atomic kind:
       Angular quantum momentum number L:                                      1
       U(eff) = (U - J) value in [eV]:                                     2.000


 MOLECULE KIND INFORMATION


 All atoms are their own molecule, skipping detailed information


 TOTAL NUMBERS AND MAXIMUM NUMBERS

  Total number of            - Atomic kinds:                                   2
                             - Atoms:                                        192
                             - Shell sets:                                   192
                             - Shells:                                      1152
                             - Primitive Cartesian functions:               1024
                             - Cartesian basis functions:                   3776
                             - Spherical basis functions:                   3328

  Maximum angular momentum of- Orbital basis functions:                        3
                             - Local part of the GTH pseudopotential:          2
                             - Non-local part of the GTH pseudopotential:      3


 MODULE QUICKSTEP: ATOMIC COORDINATES IN ANGSTROM

   Atom Kind Element         X             Y             Z       Z(eff)     Mass
      1    1 Ti   22      0.000797      0.000777      0.000002  12.0000  47.8670
      2    1 Ti   22      1.888431      1.888442      4.807510  12.0000  47.8670
      3    1 Ti   22      0.000792      1.888402      2.402069  12.0000  47.8670
      4    1 Ti   22      1.888417      0.000794      7.212946  12.0000  47.8670
      5    1 Ti   22      0.000809      3.776050      0.003087  12.0000  47.8670
      6    1 Ti   22      1.888439     13.237835      4.805775  12.0000  47.8670
      7    1 Ti   22     11.350264      1.888419      2.403679  12.0000  47.8670
      8    1 Ti   22      5.669483      0.000847      7.216938  12.0000  47.8670
      9    1 Ti   22      1.888462      3.776086      7.209839  12.0000  47.8670
     10    1 Ti   22      0.000802     13.237798      2.403815  12.0000  47.8670
     11    1 Ti   22      5.669517      1.888560      4.803473  12.0000  47.8670
     12    1 Ti   22     11.350250      0.000771     -0.001620  12.0000  47.8670
     13    1 Ti   22      3.776063      0.000807     -0.003076  12.0000  47.8670
     14    1 Ti   22     13.237829      1.888436      4.809244  12.0000  47.8670
     15    1 Ti   22     13.237815      0.000811      7.211227  12.0000  47.8670
     16    1 Ti   22      3.776081      1.888466      2.405181  12.0000  47.8670
     17    1 Ti   22      1.888560      5.669524      4.811539  12.0000  47.8670
     18    1 Ti   22      0.000778     11.350255      0.001608  12.0000  47.8670
     19    1 Ti   22      0.000847      5.669483      2.398073  12.0000  47.8670
     20    1 Ti   22      1.888426     11.350261      7.211337  12.0000  47.8670
     21    1 Ti   22      0.000839      7.569581      0.005625  12.0000  47.8670
     22    1 Ti   22      1.888487      9.462810      4.808831  12.0000  47.8670
     23    1 Ti   22      7.569576      1.888541      2.407733  12.0000  47.8670
     24    1 Ti   22      9.462797      0.000816      7.214255  12.0000  47.8670
     25    1 Ti   22      1.888543      7.569573      7.207288  12.0000  47.8670
     26    1 Ti   22      0.000812      9.462798      2.400768  12.0000  47.8670
     27    1 Ti   22      9.462808      1.888497      4.806188  12.0000  47.8670
     28    1 Ti   22      7.569576      0.000837     -0.005621  12.0000  47.8670
     29    1 Ti   22      3.776116      3.776118      0.000000  12.0000  47.8670
     30    1 Ti   22     13.237827     13.237841      4.807521  12.0000  47.8670
     31    1 Ti   22     11.350144      5.669507      2.399644  12.0000  47.8670
     32    1 Ti   22      5.669512     11.350132      7.215369  12.0000  47.8670
     33    1 Ti   22     13.237793      3.776080      7.208143  12.0000  47.8670
     34    1 Ti   22      3.776079     13.237786      2.406884  12.0000  47.8670
     35    1 Ti   22      5.669564      5.669567      4.807507  12.0000  47.8670
     36    1 Ti   22     11.350250     11.350252      0.000000  12.0000  47.8670
     37    1 Ti   22     11.350270     13.237820      2.405420  12.0000  47.8670
     38    1 Ti   22      5.669535      3.776213      7.213918  12.0000  47.8670
     39    1 Ti   22      3.776068     11.350210     -0.001495  12.0000  47.8670
     40    1 Ti   22     13.237775      5.669501      4.813233  12.0000  47.8670
     41    1 Ti   22      5.669507     13.237776      4.801791  12.0000  47.8670
     42    1 Ti   22     11.350205      3.776059      0.001490  12.0000  47.8670
     43    1 Ti   22     13.237821     11.350264      7.209604  12.0000  47.8670
     44    1 Ti   22      3.776215      5.669538      2.401100  12.0000  47.8670
     45    1 Ti   22      3.776201      7.569529      0.002599  12.0000  47.8670
     46    1 Ti   22     13.237820      9.462824      4.810539  12.0000  47.8670
     47    1 Ti   22      7.569525      5.669550      2.403691  12.0000  47.8670
     48    1 Ti   22      9.462796     11.350213      7.212656  12.0000  47.8670
     49    1 Ti   22     13.237772      7.569596      7.205600  12.0000  47.8670
     50    1 Ti   22      3.776125      9.462740      2.403852  12.0000  47.8670
     51    1 Ti   22      9.462665      5.669562      4.810261  12.0000  47.8670
     52    1 Ti   22      7.569564     11.350143     -0.004050  12.0000  47.8670
     53    1 Ti   22     11.350217      9.462792      2.402352  12.0000  47.8670
     54    1 Ti   22      5.669551      7.569515      7.211320  12.0000  47.8670
     55    1 Ti   22      5.669562      9.462668      4.804748  12.0000  47.8670
     56    1 Ti   22     11.350141      7.569560      0.004044  12.0000  47.8670
     57    1 Ti   22      9.462738      3.776129      7.211164  12.0000  47.8670
     58    1 Ti   22      7.569599     13.237767      2.409421  12.0000  47.8670
     59    1 Ti   22      7.569523      3.776196     -0.002602  12.0000  47.8670
     60    1 Ti   22      9.462820     13.237831      4.804484  12.0000  47.8670
     61    1 Ti   22      7.569518      7.569517      0.000000  12.0000  47.8670
     62    1 Ti   22      9.462777      9.462774      4.807507  12.0000  47.8670
     63    1 Ti   22      7.569540      9.462661      2.406446  12.0000  47.8670
     64    1 Ti   22      9.462660      7.569537      7.208569  12.0000  47.8670
     65    2 O     8      0.000883      0.001591      1.993243   6.0000  15.9994
     66    2 O     8      1.884810      1.887565      6.801093   6.0000  15.9994
     67    2 O     8      0.001585      1.884772      4.397426   6.0000  15.9994
     68    2 O     8      1.887582      0.000878      9.204422   6.0000  15.9994
     69    2 O     8      1.884773      0.001584      5.217595   6.0000  15.9994
     70    2 O     8      0.000879      1.887580      0.410600   6.0000  15.9994
     71    2 O     8      1.887565      1.884812      2.813925   6.0000  15.9994
     72    2 O     8      0.001595      0.000881      7.621776   6.0000  15.9994
     73    2 O     8      0.000919      3.776009      1.991358   6.0000  15.9994
     74    2 O     8      1.884773     13.236992      6.801178   6.0000  15.9994
     75    2 O     8     11.351121      1.884805      4.397396   6.0000  15.9994
     76    2 O     8      5.672146      0.000867      9.205741   6.0000  15.9994
     77    2 O     8      1.884950      3.775983      5.219451   6.0000  15.9994
     78    2 O     8      0.000881     13.236982      0.410514   6.0000  15.9994
     79    2 O     8      5.672125      1.884944      2.812658   6.0000  15.9994
     80    2 O     8     11.351104      0.000877      7.621806   6.0000  15.9994
     81    2 O     8      3.776012      0.000919      7.623659   6.0000  15.9994
     82    2 O     8     13.236993      1.884773      2.813840   6.0000  15.9994
     83    2 O     8     13.236984      0.000881      9.204504   6.0000  15.9994
     84    2 O     8      3.775987      1.884950      4.395563   6.0000  15.9994
     85    2 O     8      1.884943      5.672111      6.802362   6.0000  15.9994
     86    2 O     8      0.000875     11.351105      1.993215   6.0000  15.9994
     87    2 O     8      0.000865      5.672151      0.409282   6.0000  15.9994
     88    2 O     8      1.884807     11.351119      5.217625   6.0000  15.9994
     89    2 O     8      0.000865      7.566959      1.994472   6.0000  15.9994
     90    2 O     8      1.884944      9.462848      6.799376   6.0000  15.9994
     91    2 O     8      7.566992      1.884942      4.398605   6.0000  15.9994
     92    2 O     8      9.462827      0.000917      9.202676   6.0000  15.9994
     93    2 O     8      1.884940      7.566989      5.216418   6.0000  15.9994
     94    2 O     8      0.000919      9.462824      0.412346   6.0000  15.9994
     95    2 O     8      9.462849      1.884948      2.815646   6.0000  15.9994
     96    2 O     8      7.566960      0.000866      7.620553   6.0000  15.9994
     97    2 O     8      3.769760      0.001588      1.993635   6.0000  15.9994
     98    2 O     8     13.237601      1.887582      6.800660   6.0000  15.9994
     99    2 O     8      0.001622      5.656069      4.396946   6.0000  15.9994
    100    2 O     8      1.887564     11.353751      9.204852   6.0000  15.9994
    101    2 O     8     13.237599      0.001597      5.218025   6.0000  15.9994
    102    2 O     8      3.769865      1.887613      0.410234   6.0000  15.9994
    103    2 O     8      1.887772      5.656352      2.814415   6.0000  15.9994
    104    2 O     8      0.001583     11.353787      7.621347   6.0000  15.9994
    105    2 O     8     11.353750      1.887564      0.410166   6.0000  15.9994
    106    2 O     8      5.656064      0.001622      5.218071   6.0000  15.9994
    107    2 O     8      5.656358      1.887770      6.800603   6.0000  15.9994
    108    2 O     8     11.353785      0.001584      1.993672   6.0000  15.9994
    109    2 O     8      1.887613      3.769866      9.204787   6.0000  15.9994
    110    2 O     8      0.001596     13.237598      4.396993   6.0000  15.9994
    111    2 O     8      0.001590      3.769760      7.621383   6.0000  15.9994
    112    2 O     8      1.887582     13.237600      2.814359   6.0000  15.9994
    113    2 O     8      3.770080      3.776028      1.991821   6.0000  15.9994
    114    2 O     8     13.237597     13.236987      6.800744   6.0000  15.9994
    115    2 O     8     11.350916      5.656307      4.396903   6.0000  15.9994
    116    2 O     8      5.672115     11.353622      9.206118   6.0000  15.9994
    117    2 O     8     13.237562      3.776013      5.219914   6.0000  15.9994
    118    2 O     8      3.769760     13.236986      0.410120   6.0000  15.9994
    119    2 O     8      5.672170      5.656936      2.812843   6.0000  15.9994
    120    2 O     8     11.351120     11.353754      7.621375   6.0000  15.9994
    121    2 O     8     11.353788     13.236990      0.410084   6.0000  15.9994
    122    2 O     8      5.656632      3.776189      5.219723   6.0000  15.9994
    123    2 O     8      3.775987     11.353615      7.623201   6.0000  15.9994
    124    2 O     8     13.236959      5.656101      2.814320   6.0000  15.9994
    125    2 O     8      5.656107     13.236960      6.800695   6.0000  15.9994
    126    2 O     8     11.353616      3.775986      1.991817   6.0000  15.9994
    127    2 O     8     13.236991     11.353787      9.204937   6.0000  15.9994
    128    2 O     8      3.776184      5.656640      4.395293   6.0000  15.9994
    129    2 O     8      5.656936      5.672172      6.802181   6.0000  15.9994
    130    2 O     8     11.353754     11.351122      1.993645   6.0000  15.9994
    131    2 O     8     13.236987      3.769758      9.204899   6.0000  15.9994
    132    2 O     8      3.776010     13.237564      4.395103   6.0000  15.9994
    133    2 O     8     11.353623      5.672119      0.408901   6.0000  15.9994
    134    2 O     8      5.656298     11.350916      5.218114   6.0000  15.9994
    135    2 O     8      3.776035      3.770080      7.623205   6.0000  15.9994
    136    2 O     8     13.236984     13.237598      2.814276   6.0000  15.9994
    137    2 O     8     13.237603     11.351105      5.218057   6.0000  15.9994
    138    2 O     8      3.770126      5.672091      0.408916   6.0000  15.9994
    139    2 O     8      5.672161     13.237612      2.813037   6.0000  15.9994
    140    2 O     8     11.351071      3.769857      7.621444   6.0000  15.9994
    141    2 O     8      3.769857     11.351074      1.993578   6.0000  15.9994
    142    2 O     8     13.237615      5.672153      6.801984   6.0000  15.9994
    143    2 O     8     11.351108     13.237603      4.396969   6.0000  15.9994
    144    2 O     8      5.672102      3.770124      9.206104   6.0000  15.9994
    145    2 O     8      3.770124      7.567007      1.994830   6.0000  15.9994
    146    2 O     8     13.237562      9.462826      6.798915   6.0000  15.9994
    147    2 O     8      7.566937      5.656893      4.398420   6.0000  15.9994
    148    2 O     8      9.462846     11.353623      9.203133   6.0000  15.9994
    149    2 O     8     13.237616      7.566956      5.216797   6.0000  15.9994
    150    2 O     8      3.770069      9.462803      0.411892   6.0000  15.9994
    151    2 O     8      9.462642      5.656649      2.815929   6.0000  15.9994
    152    2 O     8      7.566988     11.353623      7.620171   6.0000  15.9994
    153    2 O     8     11.353621      9.462851      0.411888   6.0000  15.9994
    154    2 O     8      5.656895      7.566922      5.216599   6.0000  15.9994
    155    2 O     8      5.656653      9.462639      6.799087   6.0000  15.9994
    156    2 O     8     11.353624      7.566994      1.994848   6.0000  15.9994
    157    2 O     8      9.462800      3.770070      9.203129   6.0000  15.9994
    158    2 O     8      7.566955     13.237617      4.398227   6.0000  15.9994
    159    2 O     8      7.567007      3.770127      7.620187   6.0000  15.9994
    160    2 O     8      9.462828     13.237563      2.816112   6.0000  15.9994
    161    2 O     8      7.582747      0.001617      1.993232   6.0000  15.9994
    162    2 O     8      9.468706      1.887611      6.801014   6.0000  15.9994
    163    2 O     8      0.001588      9.468805      4.397371   6.0000  15.9994
    164    2 O     8      1.887755      7.582507      9.204398   6.0000  15.9994
    165    2 O     8      9.468807      0.001590      5.217648   6.0000  15.9994
    166    2 O     8      7.582507      1.887754      0.410620   6.0000  15.9994
    167    2 O     8      1.887609      9.468704      2.814007   6.0000  15.9994
    168    2 O     8      0.001618      7.582739      7.621788   6.0000  15.9994
    169    2 O     8      7.582196      3.776173      1.991564   6.0000  15.9994
    170    2 O     8      9.468807     13.236989      6.801124   6.0000  15.9994
    171    2 O     8     11.351071      9.468715      4.397315   6.0000  15.9994
    172    2 O     8      5.672153      7.581951      9.205933   6.0000  15.9994
    173    2 O     8      9.468501      3.776024      5.219473   6.0000  15.9994
    174    2 O     8      7.582740     13.236963      0.410525   6.0000  15.9994
    175    2 O     8      5.672089      9.468463      2.812688   6.0000  15.9994
    176    2 O     8     11.350931      7.582518      7.621835   6.0000  15.9994
    177    2 O     8      3.776170      7.582192      7.623452   6.0000  15.9994
    178    2 O     8     13.236987      9.468807      2.813896   6.0000  15.9994
    179    2 O     8     13.236962      7.582748      9.204496   6.0000  15.9994
    180    2 O     8      3.776023      9.468495      4.395546   6.0000  15.9994
    181    2 O     8      9.468463      5.672098      6.802326   6.0000  15.9994
    182    2 O     8      7.582526     11.350934      1.993188   6.0000  15.9994
    183    2 O     8      7.581946      5.672164      0.409085   6.0000  15.9994
    184    2 O     8      9.468715     11.351072      5.217706   6.0000  15.9994
    185    2 O     8      7.581956      7.566946      1.994665   6.0000  15.9994
    186    2 O     8      9.468510      9.462809      6.799353   6.0000  15.9994
    187    2 O     8      7.566991      9.468466      4.398566   6.0000  15.9994
    188    2 O     8      9.462660      7.582218      9.202869   6.0000  15.9994
    189    2 O     8      9.468464      7.567011      5.216451   6.0000  15.9994
    190    2 O     8      7.582209      9.462662      0.412154   6.0000  15.9994
    191    2 O     8      9.462804      9.468510      2.815671   6.0000  15.9994
    192    2 O     8      7.566946      7.581951      7.620358   6.0000  15.9994



 SCF PARAMETERS         Density guess:                                   RESTART
                        --------------------------------------------------------
                        max_scf:                                              40
                        max_scf_history:                                       0
                        max_diis:                                              4
                        --------------------------------------------------------
                        eps_scf:                                        1.00E-06
                        eps_scf_history:                                0.00E+00
                        eps_diis:                                       1.00E-01
                        eps_eigval:                                     1.00E-05
                        --------------------------------------------------------
                        level_shift [a.u.]:                             0.000000
                        --------------------------------------------------------
                        Outer loop SCF in use 
                        No variables optimised in outer loop
                        eps_scf                                         1.00E-06
                        max_scf                                               60
                        No outer loop optimization
                        step_size                                       5.00E-01

 PW_GRID| Information for grid number                                          1
 PW_GRID| Grid distributed over                                   128 processors
 PW_GRID| Real space group dimensions                                   128    1
 PW_GRID| the grid is blocked:                                                NO
 PW_GRID| Cutoff [a.u.]                                                    300.0
 PW_GRID| spherical cutoff:                                                   NO
 PW_GRID|   Bounds   1           -112     112                Points:         225
 PW_GRID|   Bounds   2           -112     112                Points:         225
 PW_GRID|   Bounds   3            -72      71                Points:         144
 PW_GRID| Volume element (a.u.^3)  0.2035E-02     Volume (a.u.^3)     14833.7304
 PW_GRID| Grid span                                                    FULLSPACE
 PW_GRID|   Distribution                         Average         Max         Min
 PW_GRID|   G-Vectors                            56953.1       57150       56925
 PW_GRID|   G-Rays                                 253.1         254         253
 PW_GRID|   Real Space Points                    56953.1       64800       32400

 PW_GRID| Information for grid number                                          2
 PW_GRID| Number of the reference grid                                         1
 PW_GRID| Grid distributed over                                   128 processors
 PW_GRID| Real space group dimensions                                   128    1
 PW_GRID| the grid is blocked:                                                NO
 PW_GRID| Cutoff [a.u.]                                                    100.0
 PW_GRID| spherical cutoff:                                                   NO
 PW_GRID|   Bounds   1            -67      67                Points:         135
 PW_GRID|   Bounds   2            -67      67                Points:         135
 PW_GRID|   Bounds   3            -40      40                Points:          81
 PW_GRID| Volume element (a.u.^3)  0.1005E-01     Volume (a.u.^3)     14833.7304
 PW_GRID| Grid span                                                    FULLSPACE
 PW_GRID|   Distribution                         Average         Max         Min
 PW_GRID|   G-Vectors                            11533.0       12150       10800
 PW_GRID|   G-Rays                                  85.4          90          80
 PW_GRID|   Real Space Points                    11533.0       21870       10935

 PW_GRID| Information for grid number                                          3
 PW_GRID| Number of the reference grid                                         1
 PW_GRID| Grid distributed over                                   128 processors
 PW_GRID| Real space group dimensions                                     8   16
 PW_GRID| the grid is blocked:                                                NO
 PW_GRID| Cutoff [a.u.]                                                     33.3
 PW_GRID| spherical cutoff:                                                   NO
 PW_GRID|   Bounds   1            -37      37                Points:          75
 PW_GRID|   Bounds   2            -37      37                Points:          75
 PW_GRID|   Bounds   3            -24      23                Points:          48
 PW_GRID| Volume element (a.u.^3)  0.5494E-01     Volume (a.u.^3)     14833.7304
 PW_GRID| Grid span                                                    FULLSPACE
 PW_GRID|   Distribution                         Average         Max         Min
 PW_GRID|   G-Vectors                             2109.4        2475        1725
 PW_GRID|   G-Rays                                  28.1          33          23
 PW_GRID|   Real Space Points                     2109.4        2400        1728

 PW_GRID| Information for grid number                                          4
 PW_GRID| Number of the reference grid                                         1
 PW_GRID| Grid distributed over                                   128 processors
 PW_GRID| Real space group dimensions                                     8   16
 PW_GRID| the grid is blocked:                                                NO
 PW_GRID| Cutoff [a.u.]                                                     11.1
 PW_GRID| spherical cutoff:                                                   NO
 PW_GRID|   Bounds   1            -22      22                Points:          45
 PW_GRID|   Bounds   2            -22      22                Points:          45
 PW_GRID|   Bounds   3            -13      13                Points:          27
 PW_GRID| Volume element (a.u.^3)  0.2713         Volume (a.u.^3)     14833.7304
 PW_GRID| Grid span                                                    FULLSPACE
 PW_GRID|   Distribution                         Average         Max         Min
 PW_GRID|   G-Vectors                              427.1         585         270
 PW_GRID|   G-Rays                                   9.5          13           6
 PW_GRID|   Real Space Points                      427.1         486         270

 POISSON| Solver                                                        PERIODIC
 POISSON| Periodicity                                                        XYZ

 RS_GRID| Information for grid number                                          1
 RS_GRID|   Bounds   1           -112     112                Points:         225
 RS_GRID|   Bounds   2           -112     112                Points:         225
 RS_GRID|   Bounds   3            -72      71                Points:         144
 RS_GRID| Real space distribution over                                  8 groups
 RS_GRID| Real space distribution along direction                              1
 RS_GRID| Border size                                                         26
 RS_GRID| Real space distribution over                                 16 groups
 RS_GRID| Real space distribution along direction                              2
 RS_GRID| Border size                                                         26
 RS_GRID|   Distribution                         Average         Max         Min
 RS_GRID|   Planes                                  80.1          81          80
 RS_GRID|   Distribution                         Average         Max         Min
 RS_GRID|   Planes                                  66.1          67          66

 RS_GRID| Information for grid number                                          2
 RS_GRID|   Bounds   1            -67      67                Points:         135
 RS_GRID|   Bounds   2            -67      67                Points:         135
 RS_GRID|   Bounds   3            -40      40                Points:          81
 RS_GRID| Real space distribution over                                  8 groups
 RS_GRID| Real space distribution along direction                              1
 RS_GRID| Border size                                                         24
 RS_GRID| Real space distribution over                                 16 groups
 RS_GRID| Real space distribution along direction                              2
 RS_GRID| Border size                                                         24
 RS_GRID|   Distribution                         Average         Max         Min
 RS_GRID|   Planes                                  64.9          65          64
 RS_GRID|   Distribution                         Average         Max         Min
 RS_GRID|   Planes                                  56.4          57          56

 RS_GRID| Information for grid number                                          3
 RS_GRID|   Bounds   1            -37      37                Points:          75
 RS_GRID|   Bounds   2            -37      37                Points:          75
 RS_GRID|   Bounds   3            -24      23                Points:          48
 RS_GRID| Real space fully replicated
 RS_GRID| Group size                                                           1

 RS_GRID| Information for grid number                                          4
 RS_GRID|   Bounds   1            -22      22                Points:          45
 RS_GRID|   Bounds   2            -22      22                Points:          45
 RS_GRID|   Bounds   3            -13      13                Points:          27
 RS_GRID| Real space fully replicated
 RS_GRID| Group size                                                           1

 BFGS| Use rational function optimization for step estimation:                NO
 BFGS| Use model Hessian for initial guess:                                  YES
 BFGS| Restart Hessian:                                                       NO
 BFGS| Trust radius:                                                       0.472

 *******************************************************************************
 ***                     STARTING GEOMETRY OPTIMIZATION                      ***
 ***                                   BFGS                                  ***
 *******************************************************************************

 Spin 1

 Number of electrons:                                                        768
 Number of occupied orbitals:                                                768
 Number of molecular orbitals:                                               768

 Spin 2

 Number of electrons:                                                        767
 Number of occupied orbitals:                                                767
 Number of molecular orbitals:                                               767

 Number of orbital functions:                                               3328
 Number of independent orbital functions:                                   3328

 Extrapolation method: initial_guess

 *** WARNING in qs_initial_guess.F:306 :: User requested to restart the    ***
 *** wavefunction from the file named: tio2-RESTART.wfn. This file does    ***
 *** not exist. Please check the existence of the file or change properly  ***
 *** the value of the keyword WFN_RESTART_FILE_NAME. Calculation continues ***
 *** using ATOMIC GUESS.                                                   ***


 Atomic guess: The first density matrix is obtained in terms of atomic orbitals
               and electronic configurations assigned to each atomic kind

 Guess for atomic kind: Ti

 Electronic structure
    Total number of core electrons                                         10.00
    Total number of valence electrons                                      12.00
    Total number of electrons                                              22.00
    Multiplicity                                                   not specified
    S   [  2.00  2.00] 2.00  2.00
    P   [  6.00] 6.00
    D      2.00


 *******************************************************************************
                  Iteration          Convergence                     Energy [au]
 *******************************************************************************
                          1         2.59099                     -56.573945749309
                          2        0.737518                     -57.461623245624
                          3        0.123244E-01                 -57.676656834797
                          4        0.338536E-02                 -57.676690535970
                          5        0.252157E-03                 -57.676697146183
                          6        0.162704E-05                 -57.676697160103
                          7        0.846593E-06                 -57.676697160104

 Energy components [Hartree]           Total Energy ::          -57.676697160104
                                        Band Energy ::          -13.440549799540
                                     Kinetic Energy ::           25.008468428381
                                   Potential Energy ::          -82.685165588485
                                      Virial (-V/T) ::            3.306286661467
                                        Core Energy ::          -97.155838374470
                                          XC Energy ::           -6.919409696495
                                     Coulomb Energy ::           46.398550910862
                       Total Pseudopotential Energy ::         -122.259340742080
                       Local Pseudopotential Energy ::         -118.928992669456
                    Nonlocal Pseudopotential Energy ::           -3.330348072625
                                        Confinement ::            0.950339392289

 Orbital energies  State     L     Occupation   Energy[a.u.]          Energy[eV]

                       1     0          2.000      -2.312566          -62.928123
                       2     0          2.000      -0.123060           -3.348633

                       1     1          6.000      -1.385567          -37.703193

                       1     2          2.000      -0.127948           -3.481643


 Total Electron Density at R=0:                                         0.004726

 Guess for atomic kind: O

 Electronic structure
    Total number of core electrons                                          2.00
    Total number of valence electrons                                       6.00
    Total number of electrons                                               8.00
    Multiplicity                                                   not specified
    S   [  2.00] 2.00
    P      4.00


 *******************************************************************************
                  Iteration          Convergence                     Energy [au]
 *******************************************************************************
                          1        0.702811                     -15.577904332270
                          2        0.612408                     -15.588447180504
                          3        0.955344E-02                 -15.655871208406
                          4        0.223754E-02                 -15.655885053552
                          5        0.157183E-02                 -15.655885461027
                          6        0.124953E-02                 -15.655885607150
                          7        0.312011E-06                 -15.655885858066

 Energy components [Hartree]           Total Energy ::          -15.655885858066
                                        Band Energy ::           -2.983128125584
                                     Kinetic Energy ::           11.754765134683
                                   Potential Energy ::          -27.410650992749
                                      Virial (-V/T) ::            2.331875684345
                                        Core Energy ::          -26.153522949072
                                          XC Energy ::           -3.157392363346
                                     Coulomb Energy ::           13.655029454351
                       Total Pseudopotential Energy ::          -37.943026860963
                       Local Pseudopotential Energy ::          -39.220419683052
                    Nonlocal Pseudopotential Energy ::            1.277392822089
                                        Confinement ::            0.347387772086

 Orbital energies  State     L     Occupation   Energy[a.u.]          Energy[eV]

                       1     0          2.000      -0.861522          -23.443215

                       1     1          4.000      -0.315021           -8.572154


 Total Electron Density at R=0:                                         0.000093

 Spin 1
 Re-scaling the density matrix to get the right number of electrons for spin 1
                  # Electrons              Trace(P)               Scaling factor
                          768               768.001                        1.000

 Spin 2
 Re-scaling the density matrix to get the right number of electrons for spin 2
                  # Electrons              Trace(P)               Scaling factor
                          767               768.001                        0.999


 SCF WAVEFUNCTION OPTIMIZATION

  ----------------------------------- OT ---------------------------------------
  Minimizer      : DIIS                : direct inversion
                                         in the iterative subspace
                                         using   7 DIIS vectors
                                         safer DIIS on
  Preconditioner : FULL_SINGLE_INVERSE : inversion of 
                                         H + eS - 2*(Sc)(c^T*H*c+const)(Sc)^T
  Precond_solver : DEFAULT
  stepsize       :    0.08000000                  energy_gap     :    0.08000000
  eps_taylor     :   0.10000E-15                  max_taylor     :             4
  ----------------------------------- OT ---------------------------------------

  Step     Update method      Time    Convergence         Total energy    Change
  ------------------------------------------------------------------------------
     1 OT DIIS     0.80E-01    2.0     0.01007408     -5659.5218134588 -5.66E+03
     2 OT DIIS     0.80E-01    1.5     0.00726850     -5694.6766631771 -3.52E+01
     3 OT DIIS     0.80E-01    1.5     0.00457810     -5727.8118341662 -3.31E+01
     4 OT DIIS     0.80E-01    1.5     0.00365102     -5737.9638342021 -1.02E+01
     5 OT DIIS     0.80E-01    1.5     0.00267130     -5749.4719893534 -1.15E+01
     6 OT DIIS     0.80E-01    1.5     0.00220166     -5756.4048407257 -6.93E+00
     7 OT DIIS     0.80E-01    1.5     0.00184019     -5762.6267363349 -6.22E+00
     8 OT DIIS     0.80E-01    1.5     0.00147448     -5768.5828383785 -5.96E+00
     9 OT DIIS     0.80E-01    1.5     0.00127834     -5772.1996197753 -3.62E+00
    10 OT DIIS     0.80E-01    1.5     0.00099652     -5775.4886925725 -3.29E+00
    11 OT DIIS     0.80E-01    1.5     0.00090952     -5776.3037168881 -8.15E-01
    12 OT DIIS     0.80E-01    1.5     0.00073557     -5778.1302145323 -1.83E+00
    13 OT DIIS     0.80E-01    1.5     0.00060626     -5779.4609229433 -1.33E+00
    14 OT DIIS     0.80E-01    1.5     0.00050217     -5780.3992137905 -9.38E-01
    15 OT DIIS     0.80E-01    1.5     0.00045392     -5780.8835586478 -4.84E-01
    16 OT DIIS     0.80E-01    1.5     0.00038354     -5781.4135835333 -5.30E-01
    17 OT DIIS     0.80E-01    1.5     0.00035768     -5781.6266125397 -2.13E-01
    18 OT DIIS     0.80E-01    1.5     0.00030949     -5781.9635721772 -3.37E-01
    19 OT DIIS     0.80E-01    1.4     0.00027101     -5782.1894234436 -2.26E-01
    20 OT DIIS     0.80E-01    1.5     0.00025710     -5782.3016153285 -1.12E-01
    21 OT DIIS     0.80E-01    1.5     0.00023919     -5782.4757510047 -1.74E-01
    22 OT DIIS     0.80E-01    1.4     0.00022405     -5782.5747085017 -9.90E-02
    23 OT DIIS     0.80E-01    1.5     0.00019861     -5782.7573007516 -1.83E-01
    24 OT DIIS     0.80E-01    1.5     0.00017631     -5782.8754567311 -1.18E-01
    25 OT DIIS     0.80E-01    1.4     0.00017979     -5782.8886009851 -1.31E-02
    26 OT DIIS     0.80E-01    1.5     0.00014577     -5783.0137943403 -1.25E-01
    27 OT DIIS     0.80E-01    1.4     0.00014272     -5783.0520449827 -3.83E-02
    28 OT DIIS     0.80E-01    1.5     0.00013339     -5783.0952330121 -4.32E-02
    29 OT SD       0.80E-01    1.5     0.00013137     -5783.1372818477 -4.20E-02
    30 OT DIIS     0.80E-01    1.4     0.00012621     -5783.1441818410 -6.90E-03
    31 OT DIIS     0.80E-01    1.5     0.00011936     -5783.1935176590 -4.93E-02
    32 OT DIIS     0.80E-01    1.4     0.00010713     -5783.2256459829 -3.21E-02
    33 OT DIIS     0.80E-01    1.5     0.00009579     -5783.2623693280 -3.67E-02
    34 OT DIIS     0.80E-01    1.5     0.00008944     -5783.2919299153 -2.96E-02
    35 OT DIIS     0.80E-01    1.4     0.00008470     -5783.3096600521 -1.77E-02
    36 OT DIIS     0.80E-01    1.4     0.00007907     -5783.3261222456 -1.65E-02
    37 OT DIIS     0.80E-01    1.5     0.00007729     -5783.3425207621 -1.64E-02
    38 OT DIIS     0.80E-01    1.4     0.00007530     -5783.3470022530 -4.48E-03
    39 OT DIIS     0.80E-01    1.5     0.00007279     -5783.3595546019 -1.26E-02
    40 OT DIIS     0.80E-01    1.5     0.00006845     -5783.3792799230 -1.97E-02

  Leaving inner SCF loop after reaching    40 steps.


  Electronic density on regular grids:      -1534.9999999999        0.0000000001
  Core density on regular grids:             1535.9999999995       -0.0000000005
  Total charge density on r-space grids:        0.9999999996
  Total charge density g-space grids:           0.9999999996

  Overlap energy of the core charge distribution:               0.00000000000328
  Self energy of the core charge distribution:             -12156.89556134359555
  Core Hamiltonian energy:                                   3257.78120575980120
  Hartree energy:                                            4031.93733436767207
  Exchange-correlation energy:                               -921.87249312147821

  DFT+U energy:                                                 5.67023441458572

  Total energy:                                             -5783.37927992301138

  outer SCF iter =    1 RMS gradient =   0.68E-04 energy =      -5783.3792799230

  ----------------------------------- OT ---------------------------------------
[...]
 flops    96 x    64 x    64         712810168320       0.0%    100.0%      0.0%     
 flops   416 x    64 x    32        1190846791680       0.0%    100.0%      0.0%     
 flops   416 x    32 x    64        1190846791680       0.0%    100.0%      0.0%     
 flops    96 x    32 x   208        1480870330368       0.0%    100.0%      0.0%     
 flops   416 x    32 x   208        1842977177600       0.0%    100.0%      0.0%     
 flops   416 x    64 x    64        2242761457664       0.0%    100.0%      0.0%     
 flops    13 x    32 x    13        2767002075136       0.0%    100.0%      0.0%     
 flops    96 x    64 x   208        2793419046912       0.0%    100.0%      0.0%     
 flops    26 x    32 x    26        2856260206592       0.0%    100.0%      0.0%     
 flops    26 x    32 x    13        2856260206592       0.0%    100.0%      0.0%     
 flops    13 x    32 x    26        2856260206592       0.0%    100.0%      0.0%     
 flops   416 x    64 x   208        3478973841408       0.0%    100.0%      0.0%     
 flops inhomo. stacks                    11800222     100.0%      0.0%      0.0%
 flops total                        32.334202E+12       0.0%    100.0%      0.0%
 flops max/rank                    336.012305E+09       0.0%    100.0%      0.0%
 matmuls inhomo. stacks                     17071     100.0%      0.0%      0.0%
 matmuls total                          748515951       0.0%    100.0%      0.0%
 number of processed stacks              19810991       0.1%     99.9%      0.0%
 average stack size                                     1.0      37.8       0.0
 marketing flops                    35.281764E+12
 -------------------------------------------------------------------------------
 # multiplications                          14482
 max memory usage/rank             375.435264E+06
 # max total images/rank                        2
 # max 3D layers                                1
 # MPI messages exchanged                53757184
 MPI messages size (bytes):
  total size                         5.098654E+12
  min size                           0.000000E+00
  max size                         692.224000E+03
  average size                      94.846008E+03
 MPI breakdown and total messages size (bytes):
             size <=      128            25279520                   609760
       128 < size <=     8192             2506624              14981633712
      8192 < size <=    32768             7200672             163551352880
     32768 < size <=   131072             8964928             697496618360
    131072 < size <=  4194304             9805440            4222645739520
   4194304 < size <= 16777216                   0                        0
  16777216 < size                               0                        0
 -------------------------------------------------------------------------------

 *** WARNING in dbcsr_mm.F:301 :: Using a non-square number of MPI ranks ***
 *** might lead to poor performance. Used ranks: 128 Suggested: 121 256  ***

 -------------------------------------------------------------------------------
 -                                                                             -
 -                      DBCSR MESSAGE PASSING PERFORMANCE                      -
 -                                                                             -
 -------------------------------------------------------------------------------
 ROUTINE             CALLS      AVE VOLUME [Bytes]
 MP_Bcast               97                     12.
 MP_Allreduce        74237                     14.
 MP_Alltoall         53769                  29075.
 MP_ISend           910488                  46828.
 MP_IRecv           908192                  46521.
 -------------------------------------------------------------------------------

 -------------------------------------------------------------------------------
 -                                                                             -
 -                                DBM STATISTICS                               -
 -                                                                             -
 -------------------------------------------------------------------------------
    M  x    N  x    K                                          COUNT     PERCENT
 -------------------------------------------------------------------------------

 -------------------------------------------------------------------------------
 -                                                                             -
 -                                GRID STATISTICS                              -
 -                                                                             -
 -------------------------------------------------------------------------------
 LP    KERNEL             BACKEND                              COUNT     PERCENT
 5     collocate ortho    CPU                               47642948      25.14%
 5     integrate ortho    CPU                               46819030      24.70%
 6     integrate ortho    CPU                               24673584      13.02%
 6     collocate ortho    CPU                               24374632      12.86%
 4     collocate ortho    CPU                               21776022      11.49%
 4     integrate ortho    CPU                               21202932      11.19%
 0     integrate general  CPU                                1572864       0.83%
 0     collocate general  CPU                                 884736       0.47%
 7     integrate ortho    CPU                                 481028       0.25%
 1     integrate general  CPU                                  73728       0.04%
 2     collocate ortho    CPU                                  10240       0.01%
 3     collocate ortho    CPU                                   6144       0.00%
 -------------------------------------------------------------------------------

 MEMORY| Estimated peak process memory [MiB]                                 359

 -------------------------------------------------------------------------------
 ----                             MULTIGRID INFO                            ----
 -------------------------------------------------------------------------------
 count for grid        1:        1694411          cutoff [a.u.]          300.00
 count for grid        2:        1447761          cutoff [a.u.]          100.00
 count for grid        3:        1525600          cutoff [a.u.]           33.33
 count for grid        4:        1430435          cutoff [a.u.]           11.11
 total gridlevel count  :        6098207

 -------------------------------------------------------------------------------
 -                                                                             -
 -                         MESSAGE PASSING PERFORMANCE                         -
 -                                                                             -
 -------------------------------------------------------------------------------

 ROUTINE             CALLS      AVE VOLUME [Bytes]
 MP_Group                4
 MP_Bcast            12841                  13094.
 MP_Allreduce        35081                    441.
 MP_Sync              2004
 MP_Alltoall          6369                2169998.
 MP_SendRecv         81280                  11544.
 MP_ISendRecv        76708                  11544.
 MP_Wait            114522
 MP_comm_split         756
 MP_ISend            68306                  78572.
 MP_IRecv            68126                  78772.
 MP_Write_All           24                 355816.
 -------------------------------------------------------------------------------


 -------------------------------------------------------------------------------
 -                                                                             -
 -                           R E F E R E N C E S                               -
 -                                                                             -
 -------------------------------------------------------------------------------
 
 CP2K version 2024.3, the CP2K developers group (2024).
 CP2K is freely available from https://www.cp2k.org/ .
 
 T. D. Kuehne, M. Iannuzzi, M. Del Ben, V. V. Rybkin, P. Seewald, F. Stein, T. 
 Laino, R. Z. Khaliullin, O. Schuett, F. Schiffmann, D. Golze, J. Wilhelm, S. 
 Chulkov, M. H. Bani-Hashemian, V. Weber, U. Borstnik, M. Taillefumier, A. S. 
 Jakobovits, A. Lazzaro, H. Pabst, T. Mueller, R. Schade, M. Guidon, S. 
 Andermatt, N. Holmberg, G. K. Schenter, A. Hehn, A. Bussy, F. Belleflamme, G. 
 Tabacchi, A. Gloess, M. Lass, I. Bethune, C. J. Mundy, C. Plessl, M. Watkins, 
 J. VandeVondele, M. Krack, J. Hutter.
 J. Chem. Phys. 152, 194103 (2020).
 CP2K: An electronic structure and molecular dynamics software package - 
 Quickstep: Efficient and accurate electronic structure calculations.
 https://doi.org/10.1063/5.0007045

 O. Schuett, P. Messmer, J. Hutter, J. VandeVondele.
 Electronic Structure Calculations on Graphics Processing Units, 173-190 (2016).
 GPU-Accelerated Sparse Matrix-Matrix Multiplication for Linear Scaling Density 
 Functional Theory.
 https://doi.org/10.1002/9781118670712.ch8

 A. Heinecke, G. Henry, M. Hutchinson, H. Pabst.
 Proceedings of Intl. Supercomputing Conference, 981-991 (2016).
 LIBXSMM: Accelerating Small Matrix Multiplications by Runtime Code Generation.
 https://doi.org/10.1109/SC.2016.83

 J. Hutter, M. Iannuzzi, F. Schiffmann, J. VandeVondele.
 WIREs Comput Mol Sci. 4, 15-25 (2014).
 CP2K: atomistic simulations of condensed matter systems.
 https://doi.org/10.1002/wcms.1159

 U. Borstnik, J. VandeVondele, V. Weber, J. Hutter.
 Parallel Comput. 40, 47-58 (2014).
 Sparse matrix multiplication: The distributed block-compressed sparse row 
 library.
 https://doi.org/10.1016/j.parco.2014.03.012

 A. Marek, V. Blum, R. Johanni, V. Havu, B. Lang, T. Auckenthaler, A. Heinecke, 
 H. Bungartz, H. Lederer.
 J. Phys. Condens. Matter 26, 213201 (2014).
 The ELPA library: scalable parallel eigenvalue solutions for electronic 
 structure theory and computational science.
 https://doi.org/10.1088/0953-8984/26/21/213201

 J. VandeVondele, J. Hutter.
 J. Chem. Phys. 127, 114105 (2007).
 Gaussian basis sets for accurate calculations on molecular systems in gas and 
 condensed phases.
 https://doi.org/10.1063/1.2770708

 T. D. Khne, M. Krack, F. R. Mohamed, M. Parrinello.
 Phys. Rev. Lett. 98, 066401 (2007).
 Efficient and accurate Car-Parrinello-like approach to Born-Oppenheimer 
 molecular dynamics.
 https://doi.org/10.1103/PhysRevLett.98.066401

 J. VandeVondele, M. Krack, F. Mohamed, M. Parrinello, T. Chassaing, J. Hutter.
 Comput. Phys. Commun. 167, 103-128 (2005).
 QUICKSTEP: Fast and accurate density functional calculations using a mixed 
 Gaussian and plane waves approach.
 https://doi.org/10.1016/j.cpc.2004.12.014

 M. Krack.
 Theor. Chem. Acc. 114, 145-152 (2005).
 Pseudopotentials for H to Kr optimized for gradient-corrected 
 exchange-correlation functionals.
 https://doi.org/10.1007/s00214-005-0655-y

 M. Frigo, S. G. Johnson.
 Proc. IEEE 93, 216-231 (2005).
 The design and implementation of FFTW3.
 https://doi.org/10.1109/JPROC.2004.840301

 J. Kolafa.
 J. Comput. Chem. 25, 335-342 (2004).
 Time-reversible always stable predictor-corrector method for molecular dynamics 
 of polarizable molecules.
 https://doi.org/10.1002/jcc.10385

 J. VandeVondele, J. Hutter.
 J. Chem. Phys. 118, 4365-4369 (2003).
 An efficient orbital transformation method for electronic structure 
 calculations.
 https://doi.org/10.1063/1.1543154

 C. Hartwigsen, S. Goedecker, J. Hutter.
 Phys. Rev. B 58, 3641-3662 (1998).
 Relativistic separable dual-space Gaussian pseudopotentials from H to Rn.
 https://doi.org/10.1103/PhysRevB.58.3641

 S. L. Dudarev, G. A. Botton, S. Y. Savrasov, C. J. Humphreys, A. P. Sutton.
 Phys. Rev. B 57, 1505-1509 (1998).
 Electron-energy-loss spectra and the structural stability of nickel oxide: An 
 LSDA+U study.
 https://doi.org/10.1103/PhysRevB.57.1505

 G. Lippert, J. Hutter, M. Parrinello.
 Mol. Phys. 92, 477-487 (1997).
 A hybrid Gaussian and plane wave density functional scheme.
 https://doi.org/10.1080/002689797170220

 S. L. Dudarev, D. N. Manh, A. P. Sutton.
 Philos. Mag. B 75, 613-628 (1997).
 Effect of Mott-Hubbard correlations on the electronic structure and structural 
 stability of uranium dioxide.
 https://doi.org/10.1080/13642819708202343

 S. Goedecker, M. Teter, J. Hutter.
 Phys. Rev. B 54, 1703-1710 (1996).
 Separable dual-space Gaussian pseudopotentials.
 https://doi.org/10.1103/PhysRevB.54.1703

 J. P. Perdew, K. Burke, M. Ernzerhof.
 Phys. Rev. Lett. 77, 3865-3868 (1996).
 Generalized gradient approximation made simple.
 https://doi.org/10.1103/PhysRevLett.77.3865


 -------------------------------------------------------------------------------
 -                                                                             -
 -                                T I M I N G                                  -
 -                                                                             -
 -------------------------------------------------------------------------------
 SUBROUTINE                       CALLS  ASD         SELF TIME        TOTAL TIME
                                MAXIMUM       AVERAGE  MAXIMUM  AVERAGE  MAXIMUM
 CP2K                                 1  1.0    0.066    0.084  266.353  266.358
 cp_geo_opt                           1  2.0    0.003    0.005  265.531  265.533
 geoopt_bfgs                          1  3.0    0.026    0.033  265.528  265.531
 cp_eval_at                           4  4.0    0.005    0.009  265.208  265.217
 qs_energies                          4  5.8    0.007    0.010  257.371  257.381
 qs_forces                            3  5.0    0.012    0.015  244.155  244.159
 scf_env_do_scf                       4  6.8    0.004    0.007  213.933  213.935
 scf_env_do_scf_inner_loop          148  7.9    0.009    0.037  205.589  205.773
 rebuild_ks_matrix                  151  9.9    0.002    0.003  107.747  108.016
 qs_ks_build_kohn_sham_matrix       151 10.9    0.038    0.046  107.745  108.014
 qs_ks_update_qs_env                154  8.9    0.002    0.004  104.555  104.819
 sum_up_and_integrate               151 11.9    0.008    0.014   67.993   68.022
 integrate_v_rspace                 302 12.9    0.012    0.018   67.807   67.902
 qs_rho_update_rho_low              152  9.0    0.002    0.003   62.266   62.283
 calculate_rho_elec                 304 10.0    0.113    0.129   62.264   62.282
 dbcsr_multiply_generic           14482 12.6    0.503    0.520   60.328   61.793
 grid_integrate_task_list           302 13.9   49.352   51.115   49.352   51.115
 grid_collocate_task_list           304 11.0   45.277   47.340   45.277   47.340
 multiply_cannon                  14482 13.6    2.682    2.831   40.262   45.513
 qs_scf_new_mos                     148  8.9    0.001    0.001   44.258   44.627
 qs_scf_loop_do_ot                  148  9.9    0.001    0.002   44.258   44.626
 ot_scf_mini                        148 10.9    0.006    0.007   41.029   41.294
 multiply_cannon_loop             14482 14.6    1.037    1.062   33.871   38.889
 scf_post_calculation_gpw             4  6.8    0.004    0.006   38.256   38.260
 fft_wrap_pw1pw2                   5077 14.2    0.099    0.113   33.393   37.522
 fft_wrap_pw1pw2_300               3211 15.7    1.263    1.399   31.024   35.278
 qs_vxc_create                      151 11.9    0.004    0.006   31.720   31.990
 xc_vxc_pw_create                   151 12.9    0.580    0.737   31.715   31.987
 fft3d_ps                          5077 16.2   10.030   11.099   26.272   31.201
 ot_mini                            736 10.2    0.011    0.013   29.994   30.324
 xc_pw_derive                      1812 14.9    0.016    0.019   21.430   25.155
 mp_waitall_1                   1706232 16.8   17.679   25.094   17.679   25.094
 multiply_cannon_multrec         231712 15.6   14.434   23.595   14.484   23.644
 make_lumo_gpw                        4  7.8    0.002    0.002   22.691   22.693
 ot_eigensolver                       8  8.8    0.010    0.012   22.619   22.620
 qs_ot_get_derivative               594 11.9    0.004    0.005   21.601   21.788
 multiply_cannon_metrocomm3      231712 15.6    0.560    0.572   12.763   21.029
 mp_alltoall_z22v                  5077 18.2   13.489   20.981   13.489   20.981
 xc_rho_set_and_dset_create         151 13.9    0.518    0.818   16.464   17.366
 xc_pw_divergence                   302 13.9    0.007    0.009   14.167   17.079
 density_rs2pw                      304 11.0    0.018    0.020   15.384   17.006
 qs_ot_get_p                        914 10.5    0.007    0.008   16.277   16.976
 potential_pw2rs                    302 13.9    0.023    0.026   15.348   15.449
 make_m2s                         28964 13.6    0.388    0.410   12.774   13.384
 yz_to_x                           1852 17.3    0.782    1.061    7.687   12.635
 write_available_results              4  7.8    0.002    0.004   12.084   12.098
 write_mo_free_results                4  8.8    0.434    0.450   11.936   11.947
 transfer_pw2rs                    1219 14.8    0.017    0.019   11.461   11.515
 qs_ot_p2m_diag                     737 11.3    0.085    0.111   11.102   11.160
 transfer_rs2pw                    1288 11.8    0.021    0.029    9.401   10.972
 make_images                      28964 14.6    0.761    0.818   10.336   10.850
 mp_waitany                       30274 15.3    7.834   10.335    7.834   10.335
 qs_ot_get_derivative_diag          440 12.6    0.009    0.011   10.182   10.272
 x_to_yz                           1981 17.6    1.300    1.645    7.797    9.951
 cp_dbcsr_syevd                     737 12.3    0.229    0.249    8.640    8.649
 transfer_pw2rs_300                 313 15.7    3.931    4.173    7.992    8.435
 init_scf_loop                        6  7.8    0.003    0.005    8.199    8.207
 cp_fm_redistribute_end             756 14.2    4.039    7.885    4.071    7.908
 transfer_rs2pw_300                 328 12.8    2.314    3.142    6.223    7.879
 cp_fm_diag_elpa                    184 14.6    0.001    0.002    7.787    7.818
 mp_sum_l                         68991 13.7    4.569    7.701    4.569    7.701
 apply_preconditioner_dbcsr         624 12.8    0.002    0.003    6.992    7.693
 apply_single                       624 13.8    0.002    0.003    6.990    7.691
 cp_fm_diag_elpa_base               184 15.6    3.696    7.410    3.722    7.472
 multiply_cannon_metrocomm4      217230 15.6    0.540    0.550    2.592    7.235
 mp_irecv_dv                     469307 16.7    2.157    6.807    2.157    6.807
 hirshfeld_integration                8  9.8    5.719    5.996    6.202    6.205
 mp_alltoall_d11v                 12147 15.1    4.585    6.044    4.585    6.044
 ot_diis_step                       148 12.9    0.020    0.022    5.955    5.957
 xc_functional_eval                 151 14.9    0.003    0.004    4.837    5.597
 pbe_lsd_eval                       151 15.9    4.835    5.595    4.835    5.595
 -------------------------------------------------------------------------------

 The number of warnings for this run is : 3
 
 -------------------------------------------------------------------------------
  **** **** ******  **  PROGRAM ENDED AT                 2025-06-19 09:33:39.923
 ***** ** ***  *** **   PROGRAM RAN ON                                 nid004415
 **    ****   ******    PROGRAM RAN BY                                    cahart
 ***** **    ** ** **   PROGRAM PROCESS ID                                167300
  **** **  *******  **  PROGRAM STOPPED IN /mnt/lustre/a2fs-work2/work/e05/e05/c
                                           ahart/postdoc2/work/group/tio2/anatas
                                           e/cell-441/geo-opt/mp-390/hole/from-n
                                           eutral/pbe-u-o/u-2.0
