     192
 i =        6, E =     -5783.6990177192
Ti         0.0001574357        0.0001021767       -0.0003329115
Ti         0.0000121125       -0.0000667824        0.0003501696
Ti         0.0000861709        0.0002086530        0.0004816112
Ti        -0.0000912012        0.0001574419       -0.0005423630
Ti         0.0001985763       -0.0001761143       -0.0003369433
Ti         0.0000160282       -0.0000625091        0.0004116564
Ti        -0.0000532857       -0.0000075410        0.0003478936
Ti        -0.0000415481        0.0000492333       -0.0002809702
Ti        -0.0001030584       -0.0000250234       -0.0004102889
Ti         0.0000431434       -0.0001090436        0.0003741828
Ti         0.0001265160        0.0000250761        0.0001739362
Ti         0.0000868950       -0.0001033672       -0.0001976403
Ti         0.0001932950       -0.0000906095       -0.0003110302
Ti        -0.0000641553        0.0000196354        0.0002146757
Ti        -0.0002417805        0.0000957905       -0.0003137910
Ti        -0.0000773000        0.0000297977        0.0004849604
Ti         0.0000132724        0.0000729262        0.0004754581
Ti         0.0001819785       -0.0002125338       -0.0003909036
Ti         0.0000336881        0.0001435366        0.0002978012
Ti        -0.0001481146        0.0000302547       -0.0003106055
Ti         0.0001469267       -0.0001171931       -0.0002958563
Ti         0.0000337200       -0.0001448551        0.0003893431
Ti        -0.0001112238        0.0001874889        0.0004067631
Ti        -0.0000526582        0.0001586898       -0.0003124644
Ti        -0.0000463642        0.0000032824       -0.0004138356
Ti         0.0001260638        0.0001697778        0.0002568267
Ti         0.0000556177       -0.0000862742        0.0002228728
Ti        -0.0000097815        0.0001322191       -0.0003883593
Ti         0.0000859336        0.0000254828       -0.0003544110
Ti        -0.0000398520       -0.0002183239        0.0003155534
Ti         0.0000085145        0.0002726222        0.0001254836
Ti        -0.0000109966        0.0000688988       -0.0002042317
Ti        -0.0001374707        0.0000626522       -0.0003367521
Ti        -0.0000050249        0.0000414437        0.0003231329
Ti         0.0000906236       -0.0000151521        0.0002736103
Ti         0.0000444034        0.0000203047       -0.0003640036
Ti        -0.0000065964        0.0000976676        0.0001062726
Ti        -0.0000041267        0.0000413447       -0.0002440371
Ti         0.0001188067       -0.0000128298       -0.0004047207
Ti        -0.0000755062       -0.0000042272        0.0003724276
Ti         0.0001223429       -0.0001735133        0.0002623922
Ti         0.0000455277       -0.0000160678       -0.0002535776
Ti        -0.0001317812        0.0001226431       -0.0001732862
Ti         0.0000142009        0.0002438778        0.0002063629
Ti         0.0001115986       -0.0002404240       -0.0002259957
Ti        -0.0000638603       -0.0000243212        0.0003240730
Ti        -0.0001423518        0.0000884899        0.0002811927
Ti        -0.0000816158        0.0000186509       -0.0001637593
Ti        -0.0001446846       -0.0000755141       -0.0002716406
Ti        -0.0000383660       -0.0000096600        0.0003265060
Ti         0.0000151742        0.0000783978        0.0003551993
Ti         0.0000222302       -0.0001826307       -0.0004488147
Ti        -0.0000844135        0.0000228681        0.0001962683
Ti        -0.0000545709       -0.0000489481       -0.0002355165
Ti         0.0000823942       -0.0000037279        0.0002221547
Ti         0.0000845911       -0.0002967176       -0.0001770829
Ti        -0.0001075456       -0.0000130650       -0.0002685821
Ti        -0.0002061481       -0.0000952721        0.0003494766
Ti        -0.0000106787       -0.0001389295       -0.0003310615
Ti         0.0000546100       -0.0000766842        0.0003505980
Ti        -0.0000266048       -0.0001034952       -0.0002995625
Ti         0.0000238846       -0.0000752476        0.0003194998
Ti        -0.0001054289        0.0001392064        0.0003066906
Ti        -0.0000402689       -0.0000113045       -0.0003186421
O         0.0000082441       -0.0000686533        0.0002391796
O         0.0000846544       -0.0002387110       -0.0001601209
O        -0.0000415361        0.0001190883       -0.0001247936
O        -0.0002428991        0.0000715291        0.0004288499
O         0.0001088460        0.0000653438        0.0002066706
O         0.0000244167       -0.0000942212       -0.0004587704
O        -0.0000564174        0.0000339772       -0.0002703686
O         0.0001028497        0.0000742664        0.0001018932
O         0.0000327260       -0.0002260008        0.0003767824
O         0.0001112563       -0.0000445976       -0.0002172856
O         0.0000315414        0.0000768377       -0.0000647121
O        -0.0001418703        0.0000555972        0.0003254867
O         0.0000353806       -0.0000363313        0.0001117163
O        -0.0000382817        0.0001328431       -0.0003174312
O         0.0000668681        0.0000699318       -0.0002393472
O         0.0002405746       -0.0000200500       -0.0000033787
O        -0.0000113300        0.0000220542        0.0000301377
O         0.0000628923        0.0000823621       -0.0001469365
O        -0.0000628258       -0.0000155606        0.0002792455
O        -0.0001626795        0.0000499755       -0.0001034783
O         0.0000834583       -0.0000480201       -0.0001581563
O         0.0000340112       -0.0000523787        0.0003150615
O         0.0000213814        0.0001493542       -0.0004143273
O         0.0000798785        0.0001482877        0.0000858271
O         0.0000685893       -0.0002265534        0.0003436329
O         0.0000849925        0.0001025528       -0.0001068494
O        -0.0001208143        0.0001274513        0.0000357815
O        -0.0000265940        0.0000333419        0.0003271909
O         0.0000830650        0.0000255830        0.0000453531
O         0.0000202623        0.0003109192       -0.0003385710
O         0.0001661244        0.0000574927       -0.0002625057
O         0.0000831029        0.0000345627        0.0000648639
O         0.0000951451        0.0000231730        0.0002976358
O        -0.0000166249       -0.0002029332       -0.0000995694
O         0.0000246885        0.0000399058       -0.0000257486
O        -0.0001917420       -0.0001382619        0.0002801708
O        -0.0000391655        0.0000313890        0.0000989333
O         0.0000553024       -0.0001499473       -0.0004253445
O        -0.0001361606       -0.0000486782       -0.0003539097
O         0.0000996548       -0.0001702151        0.0001226882
O        -0.0001121526        0.0000067489       -0.0003330044
O        -0.0000705638        0.0000762048        0.0001321794
O         0.0000626516       -0.0001674425       -0.0001054382
O        -0.0000690855       -0.0001271130        0.0002356512
O        -0.0002585519        0.0001235261        0.0002713978
O        -0.0000508839       -0.0000219080       -0.0000976095
O         0.0001087014        0.0000869429        0.0000907453
O        -0.0000405101       -0.0000190565       -0.0002269099
O         0.0001092044       -0.0002515670        0.0003404018
O        -0.0000679221       -0.0000287461       -0.0001014756
O         0.0000748421        0.0000739378        0.0000841407
O        -0.0001229168       -0.0000589867        0.0003160207
O        -0.0000054926       -0.0000373000        0.0000713322
O         0.0000650251        0.0000520469       -0.0003661549
O         0.0000779194       -0.0000305821       -0.0003057075
O         0.0002384631       -0.0000919878        0.0001624945
O        -0.0000590171        0.0001285828       -0.0002222322
O        -0.0000176837       -0.0001034947        0.0000168624
O        -0.0000389382       -0.0000976451        0.0001121149
O        -0.0000134158       -0.0000949052       -0.0002948435
O         0.0000664891       -0.0000641209       -0.0001414716
O        -0.0000745031       -0.0002419343        0.0002896970
O        -0.0000949150       -0.0000850565        0.0001853111
O        -0.0001700706        0.0000997826        0.0000975087
O         0.0000670253       -0.0000120496       -0.0000402994
O        -0.0000504877       -0.0000287320        0.0002925446
O        -0.0000824931        0.0001191698        0.0002405806
O        -0.0002294587        0.0000164065       -0.0000241896
O        -0.0000817549        0.0001293737       -0.0003726672
O        -0.0000084536        0.0001849134        0.0000474999
O         0.0000031597        0.0001071709        0.0001175768
O         0.0000048161       -0.0000241240       -0.0002372254
O        -0.0000389734        0.0001660928       -0.0000156222
O         0.0000658827        0.0001312413       -0.0003836222
O         0.0001258000       -0.0000854326       -0.0002882325
O         0.0001684071        0.0001013638        0.0000600367
O         0.0000841472        0.0000115211        0.0002981568
O        -0.0000188732       -0.0000529420       -0.0000955315
O         0.0001102382        0.0000284522        0.0001027239
O        -0.0001095496        0.0001359489        0.0002529253
O         0.0000958748       -0.0001979195        0.0003490775
O        -0.0000423808        0.0000540123       -0.0001065912
O        -0.0000918631        0.0000674622        0.0000562178
O        -0.0000268135       -0.0000845375        0.0002228077
O        -0.0000831529        0.0000715768        0.0000318226
O         0.0000204080        0.0003389278       -0.0003659253
O         0.0002133927       -0.0000452104       -0.0002947924
O         0.0000598158       -0.0001198685        0.0000451558
O        -0.0000812153        0.0002425562       -0.0003076402
O        -0.0000201722        0.0000177389        0.0000263966
O         0.0000938409        0.0000885060       -0.0000744072
O        -0.0000587656       -0.0001532566        0.0003580871
O         0.0000771069        0.0000846634        0.0002649352
O        -0.0000947933       -0.0000499145        0.0000208263
O         0.0000679138        0.0000346162        0.0000063205
O         0.0001543968       -0.0000094880       -0.0003050125
O         0.0000577795       -0.0000531312        0.0003192809
O        -0.0000814653       -0.0001426655       -0.0000734004
O         0.0000292202       -0.0000337064        0.0000121860
O        -0.0002443420        0.0000355723        0.0003052733
O        -0.0000866707        0.0000408045        0.0001241011
O        -0.0000581761       -0.0000550167       -0.0004093329
O        -0.0000918491       -0.0000979896       -0.0002697115
O         0.0001129634       -0.0000755659        0.0001357519
O         0.0000150537       -0.0002776437        0.0003795356
O        -0.0000777457       -0.0000639559       -0.0001896099
O         0.0001360654       -0.0001119166        0.0000490999
O        -0.0000613069       -0.0000130474        0.0002690041
O        -0.0001076817       -0.0000960989        0.0000680156
O        -0.0000630450        0.0000271925       -0.0003323752
O         0.0001113465       -0.0000913017       -0.0002189061
O         0.0001790961       -0.0000781700        0.0000110746
O        -0.0000335401       -0.0001212814       -0.0000013332
O        -0.0000713055       -0.0000726908       -0.0002129485
O        -0.0001361002        0.0000531700        0.0002030925
O        -0.0002367614       -0.0000754026       -0.0000308725
O        -0.0000450167       -0.0000468503       -0.0001349615
O         0.0000144043        0.0000518552        0.0004243811
O        -0.0001072695        0.0001659800       -0.0003927676
O        -0.0001346666        0.0001860370        0.0000777908
O        -0.0000018527       -0.0001815770        0.0003609210
O        -0.0000768723        0.0000290661       -0.0001156581
O        -0.0001125109       -0.0000416787        0.0000474480
O         0.0000643593        0.0000519198        0.0003209604
O        -0.0000906867        0.0000109799        0.0000739494
O        -0.0000826075        0.0002539843       -0.0004159574
O         0.0001955842       -0.0001300875       -0.0003002747
O         0.0000504647       -0.0000727480        0.0000123264
     192
 i =        7, E =     -5783.6990694667
Ti         0.0002444806        0.0000412593       -0.0001681648
Ti         0.0000782364        0.0000232892        0.0001198740
Ti         0.0000579877        0.0001763589        0.0002645301
Ti        -0.0000855402        0.0000503860       -0.0002005704
Ti         0.0001528533       -0.0000650538       -0.0001646474
Ti         0.0000955029       -0.0002288631        0.0002735821
Ti        -0.0001053566        0.0001909391        0.0001313467
Ti        -0.0000723124        0.0001330239       -0.0001916262
Ti        -0.0000618581        0.0000870766       -0.0001863827
Ti         0.0000353641        0.0000356183        0.0001710249
Ti         0.0001489348       -0.0000188378        0.0000415284
Ti         0.0000404245        0.0000409535       -0.0000746262
Ti         0.0001195171        0.0000566891       -0.0001120118
Ti        -0.0000672773       -0.0000696940        0.0000884135
Ti        -0.0001523904        0.0001377883       -0.0002247678
Ti         0.0000187423        0.0001425802        0.0001488790
Ti         0.0000638025        0.0000404170        0.0001545001
Ti         0.0002406517       -0.0001684540       -0.0002473209
Ti         0.0000883053        0.0001851653        0.0001645523
Ti        -0.0000337829        0.0000274269       -0.0002219900
Ti         0.0002064730       -0.0002577564       -0.0001301562
Ti         0.0000055617       -0.0000244940        0.0001778158
Ti        -0.0001499400        0.0001012961        0.0001954743
Ti        -0.0000987600        0.0000955158       -0.0001880436
Ti        -0.0000258396       -0.0000127907       -0.0001593311
Ti         0.0000396295        0.0000577844        0.0002738588
Ti         0.0000013558        0.0000218688        0.0000543101
Ti        -0.0000055812        0.0000170668       -0.0000336450
Ti         0.0001323856       -0.0001220879       -0.0000755442
Ti        -0.0001260486       -0.0001478824        0.0001469455
Ti        -0.0000744015        0.0001530771        0.0001062317
Ti        -0.0000806377       -0.0000368698       -0.0000458435
Ti        -0.0001771456        0.0000058145       -0.0000556283
Ti        -0.0000191135       -0.0000054402        0.0001350106
Ti         0.0000548018        0.0000706281        0.0000746652
Ti         0.0000314260       -0.0001875579       -0.0000939315
Ti        -0.0001342307       -0.0000156289        0.0001473567
Ti        -0.0000349755        0.0000162739       -0.0000684284
Ti         0.0001513608       -0.0001537039       -0.0001867058
Ti        -0.0000858438        0.0000923678        0.0000562906
Ti         0.0001314594       -0.0001120444        0.0001306078
Ti         0.0000411076       -0.0000884231       -0.0000660450
Ti        -0.0001272524        0.0000077884       -0.0001131688
Ti        -0.0000405306        0.0000766834        0.0001621466
Ti         0.0001081990       -0.0001213964       -0.0001318170
Ti        -0.0000571373       -0.0000890121        0.0000740329
Ti        -0.0000861139        0.0001800140        0.0000709667
Ti        -0.0001172871        0.0000456629       -0.0001833689
Ti        -0.0001492488        0.0000393881       -0.0001505897
Ti        -0.0000226848        0.0001151868        0.0001112966
Ti         0.0000374871       -0.0000197891        0.0001036603
Ti        -0.0000666984       -0.0001016081       -0.0001519028
Ti        -0.0000531075        0.0000937478        0.0001168837
Ti        -0.0000181906       -0.0000002338       -0.0001257522
Ti         0.0001061309       -0.0001041070        0.0001028129
Ti        -0.0000006615       -0.0001955096       -0.0000641193
Ti        -0.0000712298        0.0000572510       -0.0001406611
Ti        -0.0000791250        0.0000036020        0.0000647038
Ti        -0.0000067229       -0.0000473343       -0.0001027917
Ti         0.0000731493       -0.0001697807        0.0001409661
Ti        -0.0000048671       -0.0001948395       -0.0000726340
Ti         0.0000396326        0.0000064442        0.0000737722
Ti        -0.0000741647        0.0000626032        0.0001496978
Ti        -0.0000940858       -0.0000520216       -0.0000983731
O        -0.0000232087       -0.0000221500        0.0001076014
O        -0.0000505885        0.0000031824       -0.0001100717
O         0.0000737314       -0.0000685166       -0.0000634983
O        -0.0001524168       -0.0000725843        0.0000017857
O        -0.0000721426        0.0000805864        0.0001349325
O        -0.0000153496        0.0000470950       -0.0001753010
O        -0.0000718984       -0.0000361204       -0.0000104257
O         0.0001161996       -0.0000172974        0.0000382488
O        -0.0000209066       -0.0002080006        0.0000644221
O        -0.0000947652       -0.0000401750       -0.0001564614
O         0.0000040624       -0.0000610271       -0.0000175355
O        -0.0000948422       -0.0000478918       -0.0001087550
O        -0.0000105703       -0.0000711998        0.0002533617
O         0.0000228062       -0.0000451429       -0.0000667834
O         0.0000851798       -0.0000264735        0.0001352902
O         0.0000581853        0.0000176819        0.0000152137
O         0.0000485192       -0.0000207633        0.0000481552
O        -0.0000176180       -0.0000526809        0.0000170621
O        -0.0001393726       -0.0000172344        0.0000168357
O        -0.0001180189       -0.0000391891       -0.0000953061
O        -0.0000591625       -0.0000373032       -0.0002213710
O        -0.0000186720        0.0000005067        0.0001628544
O        -0.0000217134        0.0001356918       -0.0000081012
O        -0.0000353993        0.0000831304        0.0001788291
O        -0.0000493941       -0.0001341687       -0.0000253496
O        -0.0000491291       -0.0000746403       -0.0001623157
O        -0.0000833237       -0.0000572855       -0.0001152837
O         0.0000323280       -0.0000431046       -0.0000894935
O        -0.0000329953        0.0000332521        0.0002461137
O        -0.0000263757        0.0001526535       -0.0000711325
O         0.0000775316       -0.0000487462        0.0000790323
O         0.0000689824       -0.0000049109        0.0001004194
O        -0.0000340215       -0.0000790264        0.0001669965
O        -0.0000244515       -0.0000139064       -0.0001182867
O         0.0000065358        0.0000048337        0.0000151965
O        -0.0001896430        0.0000876203        0.0000148906
O         0.0000540356        0.0000846978        0.0001705612
O        -0.0000303438        0.0000313464       -0.0001377439
O        -0.0000031606       -0.0000080492       -0.0000733385
O         0.0000552115        0.0000945286        0.0000504795
O         0.0000861181       -0.0000364410       -0.0000979423
O        -0.0000158087        0.0000146958        0.0001147036
O        -0.0000000411        0.0000083918       -0.0000565916
O         0.0000573090       -0.0000235070        0.0001089975
O        -0.0001223164       -0.0000529047        0.0000227426
O         0.0000223027        0.0000063528       -0.0000723060
O         0.0000903718       -0.0000448963       -0.0000438734
O        -0.0000493004        0.0000298032       -0.0000666638
O        -0.0000513986       -0.0001034801        0.0000178503
O         0.0000360048       -0.0001176929       -0.0000748492
O         0.0000377113        0.0000119532        0.0000681279
O        -0.0000583334        0.0000289992       -0.0001486211
O         0.0000184104       -0.0000099035        0.0001969814
O        -0.0000346505        0.0000459447       -0.0001081457
O         0.0000318100       -0.0000182680        0.0000555644
O         0.0000410117        0.0000701305        0.0000595010
O         0.0000549642        0.0000104560       -0.0001335931
O        -0.0000274863        0.0000098794        0.0001429425
O         0.0000793828        0.0000696483        0.0000823174
O        -0.0000362233       -0.0000284072       -0.0000547037
O         0.0000231320       -0.0000477313       -0.0000437097
O         0.0000391701       -0.0001353991       -0.0000017660
O        -0.0000588044        0.0000627539       -0.0000116327
O        -0.0000388396        0.0000098544       -0.0000458363
O         0.0000213413       -0.0000483799       -0.0001349571
O         0.0000156531        0.0000186362        0.0000516429
O        -0.0000662591       -0.0000551317       -0.0000372598
O        -0.0000490114        0.0000086936       -0.0001189998
O         0.0000497689        0.0001624395       -0.0000358756
O        -0.0000366406        0.0000784681        0.0000528067
O         0.0000264777       -0.0000383164        0.0000237670
O        -0.0000175694        0.0000093532       -0.0000535187
O         0.0000365669        0.0001351992        0.0001286949
O        -0.0000350675        0.0001414449       -0.0000580849
O         0.0000510868        0.0000366948        0.0000797342
O         0.0000819163       -0.0000264328       -0.0000352514
O        -0.0000533231        0.0000087447        0.0001658034
O         0.0000127427       -0.0000323279       -0.0001672682
O         0.0000131752       -0.0000096194       -0.0000186576
O        -0.0000487476       -0.0000381058       -0.0001084821
O        -0.0000274192       -0.0001333848        0.0000480889
O         0.0000050929       -0.0000155312       -0.0001517266
O        -0.0000741664        0.0000061094       -0.0000374386
O        -0.0000053009        0.0000404600       -0.0000888834
O         0.0000591510       -0.0000119754        0.0002738529
O        -0.0000141103        0.0000513225        0.0000085151
O         0.0000701372       -0.0000177076        0.0000392424
O         0.0000602870        0.0000496398        0.0001029191
O         0.0000530615        0.0001205879       -0.0000198327
O        -0.0000147160        0.0000187074        0.0002073328
O        -0.0000013249       -0.0000101179       -0.0001244425
O         0.0000378659       -0.0001605569       -0.0000155969
O        -0.0000361052       -0.0000390035       -0.0000743729
O        -0.0001334586        0.0000270803       -0.0001035083
O         0.0000448744       -0.0000242819        0.0000511140
O         0.0001377406        0.0000231501        0.0000619135
O         0.0000003657       -0.0000016317        0.0001126851
O         0.0000360449       -0.0000643574       -0.0000227913
O         0.0000476384        0.0000017679       -0.0000525760
O        -0.0000768539        0.0000308373        0.0000435202
O         0.0000232344        0.0001070283        0.0001167309
O        -0.0000078337        0.0000311279       -0.0002140731
O        -0.0000447634        0.0000285132       -0.0001052732
O         0.0000592388       -0.0000119580       -0.0000230811
O         0.0000183003       -0.0001286564        0.0000990249
O         0.0000178898       -0.0000637744       -0.0000525677
O        -0.0000499828        0.0000316600        0.0000387323
O        -0.0001017797        0.0000161799       -0.0000755404
O         0.0000425030       -0.0000288107        0.0002010585
O         0.0000065065       -0.0000284815       -0.0000983217
O         0.0000560571        0.0000352642        0.0000640781
O         0.0000303074       -0.0000313066       -0.0000564706
O         0.0000209241       -0.0000224462        0.0000057869
O         0.0000142989        0.0000388029       -0.0000306449
O        -0.0000937454        0.0000256903        0.0000302336
O        -0.0000522186        0.0000139237       -0.0000842916
O         0.0000034664       -0.0000206172       -0.0001630868
O         0.0000104913       -0.0000497831        0.0001974803
O        -0.0000127220        0.0000858368       -0.0000290275
O         0.0000553660        0.0000124014        0.0001451255
O        -0.0000051082       -0.0001088619        0.0000167418
O         0.0000394445       -0.0000263703       -0.0001035518
O        -0.0000680647        0.0000174683       -0.0000811268
O         0.0000215162        0.0000208958       -0.0000636985
O         0.0000222077        0.0000170973        0.0001822539
O        -0.0000107027        0.0001296935       -0.0000940863
O         0.0000602599        0.0000358731        0.0000467991
O         0.0000783265       -0.0000107644        0.0000486327
     192
 i =        8, E =     -5783.6990965168
Ti         0.0002444806        0.0000412593       -0.0001681648
Ti         0.0000782364        0.0000232892        0.0001198740
Ti         0.0000579877        0.0001763589        0.0002645301
Ti        -0.0000855402        0.0000503860       -0.0002005704
Ti         0.0001528533       -0.0000650538       -0.0001646474
Ti         0.0000955029       -0.0002288631        0.0002735821
Ti        -0.0001053566        0.0001909391        0.0001313467
Ti        -0.0000723124        0.0001330239       -0.0001916262
Ti        -0.0000618581        0.0000870766       -0.0001863827
Ti         0.0000353641        0.0000356183        0.0001710249
Ti         0.0001489348       -0.0000188378        0.0000415284
Ti         0.0000404245        0.0000409535       -0.0000746262
Ti         0.0001195171        0.0000566891       -0.0001120118
Ti        -0.0000672773       -0.0000696940        0.0000884135
Ti        -0.0001523904        0.0001377883       -0.0002247678
Ti         0.0000187423        0.0001425802        0.0001488790
Ti         0.0000638025        0.0000404170        0.0001545001
Ti         0.0002406517       -0.0001684540       -0.0002473209
Ti         0.0000883053        0.0001851653        0.0001645523
Ti        -0.0000337829        0.0000274269       -0.0002219900
Ti         0.0002064730       -0.0002577564       -0.0001301562
Ti         0.0000055617       -0.0000244940        0.0001778158
Ti        -0.0001499400        0.0001012961        0.0001954743
Ti        -0.0000987600        0.0000955158       -0.0001880436
Ti        -0.0000258396       -0.0000127907       -0.0001593311
Ti         0.0000396295        0.0000577844        0.0002738588
Ti         0.0000013558        0.0000218688        0.0000543101
Ti        -0.0000055812        0.0000170668       -0.0000336450
Ti         0.0001323856       -0.0001220879       -0.0000755442
Ti        -0.0001260486       -0.0001478824        0.0001469455
Ti        -0.0000744015        0.0001530771        0.0001062317
Ti        -0.0000806377       -0.0000368698       -0.0000458435
Ti        -0.0001771456        0.0000058145       -0.0000556283
Ti        -0.0000191135       -0.0000054402        0.0001350106
Ti         0.0000548018        0.0000706281        0.0000746652
Ti         0.0000314260       -0.0001875579       -0.0000939315
Ti        -0.0001342307       -0.0000156289        0.0001473567
Ti        -0.0000349755        0.0000162739       -0.0000684284
Ti         0.0001513608       -0.0001537039       -0.0001867058
Ti        -0.0000858438        0.0000923678        0.0000562906
Ti         0.0001314594       -0.0001120444        0.0001306078
Ti         0.0000411076       -0.0000884231       -0.0000660450
Ti        -0.0001272524        0.0000077884       -0.0001131688
Ti        -0.0000405306        0.0000766834        0.0001621466
Ti         0.0001081990       -0.0001213964       -0.0001318170
Ti        -0.0000571373       -0.0000890121        0.0000740329
Ti        -0.0000861139        0.0001800140        0.0000709667
Ti        -0.0001172871        0.0000456629       -0.0001833689
Ti        -0.0001492488        0.0000393881       -0.0001505897
Ti        -0.0000226848        0.0001151868        0.0001112966
Ti         0.0000374871       -0.0000197891        0.0001036603
Ti        -0.0000666984       -0.0001016081       -0.0001519028
Ti        -0.0000531075        0.0000937478        0.0001168837
Ti        -0.0000181906       -0.0000002338       -0.0001257522
Ti         0.0001061309       -0.0001041070        0.0001028129
Ti        -0.0000006615       -0.0001955096       -0.0000641193
Ti        -0.0000712298        0.0000572510       -0.0001406611
Ti        -0.0000791250        0.0000036020        0.0000647038
Ti        -0.0000067229       -0.0000473343       -0.0001027917
Ti         0.0000731493       -0.0001697807        0.0001409661
Ti        -0.0000048671       -0.0001948395       -0.0000726340
Ti         0.0000396326        0.0000064442        0.0000737722
Ti        -0.0000741647        0.0000626032        0.0001496978
Ti        -0.0000940858       -0.0000520216       -0.0000983731
O        -0.0000232087       -0.0000221500        0.0001076014
O        -0.0000505885        0.0000031824       -0.0001100717
O         0.0000737314       -0.0000685166       -0.0000634983
O        -0.0001524168       -0.0000725843        0.0000017857
O        -0.0000721426        0.0000805864        0.0001349325
O        -0.0000153496        0.0000470950       -0.0001753010
O        -0.0000718984       -0.0000361204       -0.0000104257
O         0.0001161996       -0.0000172974        0.0000382488
O        -0.0000209066       -0.0002080006        0.0000644221
O        -0.0000947652       -0.0000401750       -0.0001564614
O         0.0000040624       -0.0000610271       -0.0000175355
O        -0.0000948422       -0.0000478918       -0.0001087550
O        -0.0000105703       -0.0000711998        0.0002533617
O         0.0000228062       -0.0000451429       -0.0000667834
O         0.0000851798       -0.0000264735        0.0001352902
O         0.0000581853        0.0000176819        0.0000152137
O         0.0000485192       -0.0000207633        0.0000481552
O        -0.0000176180       -0.0000526809        0.0000170621
O        -0.0001393726       -0.0000172344        0.0000168357
O        -0.0001180189       -0.0000391891       -0.0000953061
O        -0.0000591625       -0.0000373032       -0.0002213710
O        -0.0000186720        0.0000005067        0.0001628544