 DBCSR| CPU Multiplication driver                                           XSMM (U)
 DBCSR| Multrec recursion limit                                              512 (U)
 DBCSR| Multiplication stack size                                           1000 (D)
 DBCSR| Maximum elements for images                                    UNLIMITED (U)
 DBCSR| Multiplicative factor virtual images                                   1 (U)
 DBCSR| Use multiplication densification                                       T (D)
 DBCSR| Multiplication size stacks                                             3 (U)
 DBCSR| Use memory pool for CPU allocation                                     F (U)
 DBCSR| Number of 3D layers                                               SINGLE (U)
 DBCSR| Use MPI memory allocation                                              F (U)
 DBCSR| Use RMA algorithm                                                      F (U)
 DBCSR| Use Communication thread                                               T (U)
 DBCSR| Communication thread load                                             87 (D)
 DBCSR| MPI: My process id                                                     0
 DBCSR| MPI: Number of processes                                             128
 DBCSR| OMP: Current number of threads                                         1
 DBCSR| OMP: Max number of threads                                             1
 DBCSR| Split modifier for TAS multiplication algorithm                  1.0E+00 (U)


  **** **** ******  **  PROGRAM STARTED AT               2025-06-19 09:13:41.955
 ***** ** ***  *** **   PROGRAM STARTED ON                             nid003483
 **    ****   ******    PROGRAM STARTED BY                                cahart
 ***** **    ** ** **   PROGRAM PROCESS ID                                184337
  **** **  *******  **  PROGRAM STARTED IN /mnt/lustre/a2fs-work2/work/e05/e05/c
                                           ahart/postdoc2/work/group/tio2/anatas
                                           e/cell-441/geo-opt/mp-390/neutral/pbe
                                           -u-o/u-2.2

 CP2K| version string:                                       CP2K version 2024.3
 CP2K| source code revision number:                                  git:6712648
 CP2K| cp2kflags: omp libint fftw3 libxc libgrpp elpa parallel scalapack cosma x
 CP2K|            smm plumed2 spglib mkl sirius libvori libbqb libvdwxc hdf5
 CP2K| is freely available from                            https://www.cp2k.org/
 CP2K| Program compiled at                       Thu 12 Sep 2024 10:20:47 AM BST
 CP2K| Program compiled on                                                  ln04
 CP2K| Program compiled for                                                local
 CP2K| Data directory path    /mnt/lustre/a2fs-work1/work/y07/shared/apps/core/c
 CP2K| Input file name                                                 input.inp

 GLOBAL| Force Environment number                                              1
 GLOBAL| Basis set file name                                        BASIS_MOLOPT
 GLOBAL| Potential file name                                      GTH_POTENTIALS
 GLOBAL| MM Potential file name                                     MM_POTENTIAL
 GLOBAL| Coordinate file name                                         system.xyz
 GLOBAL| Method name                                                        CP2K
 GLOBAL| Project name                                                       tio2
 GLOBAL| Run type                                                        GEO_OPT
 GLOBAL| FFT library                                                       FFTW3
 GLOBAL| Diagonalization library                                            ELPA
 GLOBAL| DGEMM library                                                      BLAS
 GLOBAL| Minimum number of eigenvectors for ELPA usage                        16
 GLOBAL| Orthonormality check for eigenvectors                          DISABLED
 GLOBAL| Matrix multiplication library                                     COSMA
 GLOBAL| All-to-all communication in single precision                          F
 GLOBAL| FFTs using library dependent lengths                                  F
 GLOBAL| Grid backend                                                       AUTO
 GLOBAL| Global print level                                               MEDIUM
 GLOBAL| MPI I/O enabled                                                       T
 GLOBAL| Total number of message passing processes                           128
 GLOBAL| Number of threads for this process                                    1
 GLOBAL| This output is from process                                           0
 GLOBAL| Stack size for threads created by OpenMP (OMP_STACKSIZE)        default
 GLOBAL| CPU model name                          AMD EPYC 7742 64-Core Processor
 GLOBAL| CPUID                                                              1002

 MEMORY| system memory details [Kb]
 MEMORY|                        rank 0           min           max       average
 MEMORY| MemTotal            263341976     263341976     263341976     263341976
 MEMORY| MemFree             233610420     233610420     233612688     233611339
 MEMORY| Buffers                     0             0             0             0
 MEMORY| Cached                2385480       2382720       2385480       2384431
 MEMORY| Slab                  6079468       6079288       6079468       6079404
 MEMORY| SReclaimable           912932        912892        912932        912916
 MEMORY| MemLikelyFree       236908832     236908300     236908964     236908687


 *** Fundamental physical constants (SI units) ***

 *** Literature: B. J. Mohr and B. N. Taylor,
 ***             CODATA recommended values of the fundamental physical
 ***             constants: 2006, Web Version 5.1
 ***             http://physics.nist.gov/constants

 Speed of light in vacuum [m/s]                             2.99792458000000E+08
 Magnetic constant or permeability of vacuum [N/A**2]       1.25663706143592E-06
 Electric constant or permittivity of vacuum [F/m]          8.85418781762039E-12
 Planck constant (h) [J*s]                                  6.62606896000000E-34
 Planck constant (h-bar) [J*s]                              1.05457162825177E-34
 Elementary charge [C]                                      1.60217648700000E-19
 Electron mass [kg]                                         9.10938215000000E-31
 Electron g factor [ ]                                     -2.00231930436220E+00
 Proton mass [kg]                                           1.67262163700000E-27
 Fine-structure constant                                    7.29735253760000E-03
 Rydberg constant [1/m]                                     1.09737315685270E+07
 Avogadro constant [1/mol]                                  6.02214179000000E+23
 Boltzmann constant [J/K]                                   1.38065040000000E-23
 Atomic mass unit [kg]                                      1.66053878200000E-27
 Bohr radius [m]                                            5.29177208590000E-11

 *** Conversion factors ***

 [u] -> [a.u.]                                              1.82288848426455E+03
 [Angstrom] -> [Bohr] = [a.u.]                              1.88972613288564E+00
 [a.u.] = [Bohr] -> [Angstrom]                              5.29177208590000E-01
 [a.u.] -> [s]                                              2.41888432650478E-17
 [a.u.] -> [fs]                                             2.41888432650478E-02
 [a.u.] -> [J]                                              4.35974393937059E-18
 [a.u.] -> [N]                                              8.23872205491840E-08
 [a.u.] -> [K]                                              3.15774647902944E+05
 [a.u.] -> [kJ/mol]                                         2.62549961709828E+03
 [a.u.] -> [kcal/mol]                                       6.27509468713739E+02
 [a.u.] -> [Pa]                                             2.94210107994716E+13
 [a.u.] -> [bar]                                            2.94210107994716E+08
 [a.u.] -> [atm]                                            2.90362800883016E+08
 [a.u.] -> [eV]                                             2.72113838565563E+01
 [a.u.] -> [Hz]                                             6.57968392072181E+15
 [a.u.] -> [1/cm] (wave numbers)                            2.19474631370540E+05
 [a.u./Bohr**2] -> [1/cm]                                   5.14048714338585E+03
 

 CELL_TOP| Volume [angstrom^3]:                                      2198.132028
 CELL_TOP| Vector a [angstrom    15.120     0.000     0.000   |a| =    15.120000
 CELL_TOP| Vector b [angstrom     0.000    15.120     0.000   |b| =    15.120000
 CELL_TOP| Vector c [angstrom     0.000     0.000     9.615   |c| =     9.615020
 CELL_TOP| Angle (b,c), alpha [degree]:                                90.000000
 CELL_TOP| Angle (a,c), beta  [degree]:                                90.000000
 CELL_TOP| Angle (a,b), gamma [degree]:                                90.000000
 CELL_TOP| Requested initial symmetry:                       MONOCLINIC_GAMMA_AB
 CELL_TOP| Numerically orthorhombic:                                         YES
 CELL_TOP| Periodicity                                                       XYZ

 GENERATE|  Preliminary Number of Bonds generated:                             0
 GENERATE|  Achieved consistency in connectivity generation.

 CELL| Volume [angstrom^3]:                                          2198.132028
 CELL| Vector a [angstrom]:      15.120     0.000     0.000   |a| =    15.120000
 CELL| Vector b [angstrom]:       0.000    15.120     0.000   |b| =    15.120000
 CELL| Vector c [angstrom]:       0.000     0.000     9.615   |c| =     9.615020
 CELL| Angle (b,c), alpha [degree]:                                    90.000000
 CELL| Angle (a,c), beta  [degree]:                                    90.000000
 CELL| Angle (a,b), gamma [degree]:                                    90.000000
 CELL| Requested initial symmetry:                           MONOCLINIC_GAMMA_AB
 CELL| Numerically orthorhombic:                                             YES
 CELL| Periodicity                                                           XYZ

 CELL_REF| Volume [angstrom^3]:                                      2198.132028
 CELL_REF| Vector a [angstrom    15.120     0.000     0.000   |a| =    15.120000
 CELL_REF| Vector b [angstrom     0.000    15.120     0.000   |b| =    15.120000
 CELL_REF| Vector c [angstrom     0.000     0.000     9.615   |c| =     9.615020
 CELL_REF| Angle (b,c), alpha [degree]:                                90.000000
 CELL_REF| Angle (a,c), beta  [degree]:                                90.000000
 CELL_REF| Angle (a,b), gamma [degree]:                                90.000000
 CELL_REF| Requested initial symmetry:                       MONOCLINIC_GAMMA_AB
 CELL_REF| Numerically orthorhombic:                                         YES
 CELL_REF| Periodicity                                                       XYZ

 *******************************************************************************
 *******************************************************************************
 **                                                                           **
 **     #####                         ##              ##                      **
 **    ##   ##            ##          ##              ##                      **
 **   ##     ##                       ##            ######                    **
 **   ##     ##  ##   ##  ##   #####  ##  ##   ####   ##    #####    #####    **
 **   ##     ##  ##   ##  ##  ##      ## ##   ##      ##   ##   ##  ##   ##   **
 **   ##  ## ##  ##   ##  ##  ##      ####     ###    ##   ######   ######    **
 **    ##  ###   ##   ##  ##  ##      ## ##      ##   ##   ##       ##        **
 **     #######   #####   ##   #####  ##  ##  ####    ##    #####   ##        **
 **           ##                                                    ##        **
 **                                                                           **
 **                                                ... make the atoms dance   **
 **                                                                           **
 **            Copyright (C) by CP2K developers group (2000-2024)             **
 **                      J. Chem. Phys. 152, 194103 (2020)                    **
 **                                                                           **
 *******************************************************************************

 DFT| Spin unrestricted (spin-polarized) Kohn-Sham calculation               UKS
 DFT| Multiplicity                                                             1
 DFT| Number of spin states                                                    2
 DFT| Charge                                                                   0
 DFT| Self-interaction correction (SIC)                                       NO
 DFT| Cutoffs: density                                              1.000000E-10
 DFT|          gradient                                             1.000000E-10
 DFT|          tau                                                  1.000000E-10
 DFT|          cutoff_smoothing_range                               0.000000E+00
 DFT| XC density smoothing                                                  NONE
 DFT| XC derivatives                                                          PW

 DFT+U| Method                                                          MULLIKEN
 DFT+U| Check atomic kind information for details

 FUNCTIONAL| PBE:
 FUNCTIONAL| J.P.Perdew, K.Burke, M.Ernzerhof, Phys. Rev. Letter, vol. 77, n 18,
 FUNCTIONAL|  pp. 3865-3868, (1996) {spin polarized}                            


 QS| Method:                                                                 GPW
 QS| Density plane wave grid type                        NON-SPHERICAL FULLSPACE
 QS| Number of grid levels:                                                    4
 QS| Density cutoff [a.u.]:                                                300.0
 QS| Multi grid cutoff [a.u.]: 1) grid level                               300.0
 QS|                           2) grid level                               100.0
 QS|                           3) grid level                                33.3
 QS|                           4) grid level                                11.1
 QS| Grid level progression factor:                                          3.0
 QS| Relative density cutoff [a.u.]:                                        20.0
 QS| Interaction thresholds: eps_pgf_orb:                                1.0E-06
 QS|                         eps_filter_matrix:                          0.0E+00
 QS|                         eps_core_charge:                            1.0E-14
 QS|                         eps_rho_gspace:                             1.0E-12
 QS|                         eps_rho_rspace:                             1.0E-12
 QS|                         eps_gvg_rspace:                             1.0E-06
 QS|                         eps_ppl:                                    1.0E-02
 QS|                         eps_ppnl:                                   1.0E-08


 ATOMIC KIND INFORMATION

  1. Atomic kind: Ti                                    Number of atoms:      64

     Orbital Basis Set                                    DZVP-MOLOPT-SR-GTH-q12

       Number of orbital shell sets:                                           1
       Number of orbital shells:                                               8
       Number of primitive Cartesian functions:                                6
       Number of Cartesian basis functions:                                   31
       Number of spherical basis functions:                                   26
       Norm type:                                                              2

       Normalised Cartesian orbitals:

                        Set   Shell   Orbital            Exponent    Coefficient

                          1       1    2s                7.884570       0.015554
                                                         3.894698       0.963603
                                                         1.513589      -0.631435
                                                         0.596768      -0.343022
                                                         0.222222      -0.006534
                                                         0.077078       0.007652

                          1       2    3s                7.884570      -0.009340
                                                         3.894698       0.212624
                                                         1.513589      -0.258368
                                                         0.596768      -0.226206
                                                         0.222222       0.039438
                                                         0.077078       0.107179

                          1       3    4s                7.884570       0.276563
                                                         3.894698       0.105452
                                                         1.513589       0.085149
                                                         0.596768       0.882541
                                                         0.222222      -0.696223
                                                         0.077078       0.156638

                          1       4    3px               7.884570      -2.034794
                                                         3.894698       0.782008
                                                         1.513589       1.253903
                                                         0.596768       0.347823
                                                         0.222222       0.016778
                                                         0.077078      -0.000433
                          1       4    3py               7.884570      -2.034794
                                                         3.894698       0.782008
                                                         1.513589       1.253903
                                                         0.596768       0.347823
                                                         0.222222       0.016778
                                                         0.077078      -0.000433
                          1       4    3pz               7.884570      -2.034794
                                                         3.894698       0.782008
                                                         1.513589       1.253903
                                                         0.596768       0.347823
                                                         0.222222       0.016778
                                                         0.077078      -0.000433

                          1       5    4px               7.884570       0.376572
                                                         3.894698      -0.182875
                                                         1.513589      -0.474776
                                                         0.596768      -0.081757
                                                         0.222222       0.064432
                                                         0.077078       0.047279
                          1       5    4py               7.884570       0.376572
                                                         3.894698      -0.182875
                                                         1.513589      -0.474776
                                                         0.596768      -0.081757
                                                         0.222222       0.064432
                                                         0.077078       0.047279
                          1       5    4pz               7.884570       0.376572
                                                         3.894698      -0.182875
                                                         1.513589      -0.474776
                                                         0.596768      -0.081757
                                                         0.222222       0.064432
                                                         0.077078       0.047279

                          1       6    4dx2              7.884570       3.047350
                                                         3.894698       3.289529
                                                         1.513589       1.060616
                                                         0.596768       0.249930
                                                         0.222222       0.038806
                                                         0.077078       0.002319
                          1       6    4dxy              7.884570       5.278165
                                                         3.894698       5.697631
                                                         1.513589       1.837041
                                                         0.596768       0.432892
                                                         0.222222       0.067214
                                                         0.077078       0.004017
                          1       6    4dxz              7.884570       5.278165
                                                         3.894698       5.697631
                                                         1.513589       1.837041
                                                         0.596768       0.432892
                                                         0.222222       0.067214
                                                         0.077078       0.004017
                          1       6    4dy2              7.884570       3.047350
                                                         3.894698       3.289529
                                                         1.513589       1.060616
                                                         0.596768       0.249930
                                                         0.222222       0.038806
                                                         0.077078       0.002319
                          1       6    4dyz              7.884570       5.278165
                                                         3.894698       5.697631
                                                         1.513589       1.837041
                                                         0.596768       0.432892
                                                         0.222222       0.067214
                                                         0.077078       0.004017
                          1       6    4dz2              7.884570       3.047350
                                                         3.894698       3.289529
                                                         1.513589       1.060616
                                                         0.596768       0.249930
                                                         0.222222       0.038806
                                                         0.077078       0.002319

                          1       7    5dx2              7.884570      -2.119015
                                                         3.894698      -1.237751
                                                         1.513589      -0.746777
                                                         0.596768      -0.071514
                                                         0.222222       0.004086
                                                         0.077078       0.017595
                          1       7    5dxy              7.884570      -3.670241
                                                         3.894698      -2.143848
                                                         1.513589      -1.293455
                                                         0.596768      -0.123865
                                                         0.222222       0.007077
                                                         0.077078       0.030475
                          1       7    5dxz              7.884570      -3.670241
                                                         3.894698      -2.143848
                                                         1.513589      -1.293455
                                                         0.596768      -0.123865
                                                         0.222222       0.007077
                                                         0.077078       0.030475
                          1       7    5dy2              7.884570      -2.119015
                                                         3.894698      -1.237751
                                                         1.513589      -0.746777
                                                         0.596768      -0.071514
                                                         0.222222       0.004086
                                                         0.077078       0.017595
                          1       7    5dyz              7.884570      -3.670241
                                                         3.894698      -2.143848
                                                         1.513589      -1.293455
                                                         0.596768      -0.123865
                                                         0.222222       0.007077
                                                         0.077078       0.030475
                          1       7    5dz2              7.884570      -2.119015
                                                         3.894698      -1.237751
                                                         1.513589      -0.746777
                                                         0.596768      -0.071514
                                                         0.222222       0.004086
                                                         0.077078       0.017595

                          1       8    5fx3              7.884570      -0.342058
                                                         3.894698       0.375798
                                                         1.513589      -0.706469
                                                         0.596768      -0.229994
                                                         0.222222      -0.012723
                                                         0.077078       0.003932
                          1       8    5fx2y             7.884570      -0.764866
                                                         3.894698       0.840310
                                                         1.513589      -1.579712
                                                         0.596768      -0.514282
                                                         0.222222      -0.028450
                                                         0.077078       0.008792
                          1       8    5fx2z             7.884570      -0.764866
                                                         3.894698       0.840310
                                                         1.513589      -1.579712
                                                         0.596768      -0.514282
                                                         0.222222      -0.028450
                                                         0.077078       0.008792
                          1       8    5fxy2             7.884570      -0.764866
                                                         3.894698       0.840310
                                                         1.513589      -1.579712
                                                         0.596768      -0.514282
                                                         0.222222      -0.028450
                                                         0.077078       0.008792
                          1       8    5fxyz             7.884570      -1.324787
                                                         3.894698       1.455460
                                                         1.513589      -2.736142
                                                         0.596768      -0.890763
                                                         0.222222      -0.049276
                                                         0.077078       0.015229
                          1       8    5fxz2             7.884570      -0.764866
                                                         3.894698       0.840310
                                                         1.513589      -1.579712
                                                         0.596768      -0.514282
                                                         0.222222      -0.028450
                                                         0.077078       0.008792
                          1       8    5fy3              7.884570      -0.342058
                                                         3.894698       0.375798
                                                         1.513589      -0.706469
                                                         0.596768      -0.229994
                                                         0.222222      -0.012723
                                                         0.077078       0.003932
                          1       8    5fy2z             7.884570      -0.764866
                                                         3.894698       0.840310
                                                         1.513589      -1.579712
                                                         0.596768      -0.514282
                                                         0.222222      -0.028450
                                                         0.077078       0.008792
                          1       8    5fyz2             7.884570      -0.764866
                                                         3.894698       0.840310
                                                         1.513589      -1.579712
                                                         0.596768      -0.514282
                                                         0.222222      -0.028450
                                                         0.077078       0.008792
                          1       8    5fz3              7.884570      -0.342058
                                                         3.894698       0.375798
                                                         1.513589      -0.706469
                                                         0.596768      -0.229994
                                                         0.222222      -0.012723
                                                         0.077078       0.003932

       Atomic covalent radius [Angstrom]:                                  1.320

       Atomic van der Waals radius [Angstrom]:                             1.760

     GTH Potential information for                                   GTH-PBE-q12

       Description:                       Goedecker-Teter-Hutter pseudopotential
                                           Goedecker et al., PRB 54, 1703 (1996)
                                          Hartwigsen et al., PRB 58, 3641 (1998)
                                                      Krack, TCA 114, 145 (2005)

       Gaussian exponent of the core charge distribution:               3.462604
       Electronic configuration (s p d ...):                           4   6   2

       Parameters of the local part of the GTH pseudopotential:

                          rloc        C1          C2          C3          C4
                        0.380000    8.711442   -0.700287

       Parameters of the non-local part of the GTH pseudopotential:

                   l      r(l)      h(i,j,l)

                   0    0.337771    2.575264    3.692971
                                    3.692971   -4.767605
                   1    0.242531   -4.630541    8.870875
                                    8.870875  -10.496161
                   2    0.243317   -9.406653

  2. Atomic kind: O                                     Number of atoms:     128

     Orbital Basis Set                                     DZVP-MOLOPT-SR-GTH-q6

       Number of orbital shell sets:                                           1
       Number of orbital shells:                                               5
       Number of primitive Cartesian functions:                                5
       Number of Cartesian basis functions:                                   14
       Number of spherical basis functions:                                   13
       Norm type:                                                              2

       Normalised Cartesian orbitals:

                        Set   Shell   Orbital            Exponent    Coefficient

                          1       1    2s               10.389228       0.396646
                                                         3.849621       0.208811
                                                         1.388401      -0.301641
                                                         0.496955      -0.274061
                                                         0.162492      -0.033677

                          1       2    3s               10.389228       0.303673
                                                         3.849621       0.240943
                                                         1.388401      -0.313066
                                                         0.496955      -0.043055
                                                         0.162492       0.213991

                          1       3    3px              10.389228      -1.530415
                                                         3.849621      -1.371928
                                                         1.388401      -0.761951
                                                         0.496955      -0.253695
                                                         0.162492      -0.035541
                          1       3    3py              10.389228      -1.530415
                                                         3.849621      -1.371928
                                                         1.388401      -0.761951
                                                         0.496955      -0.253695
                                                         0.162492      -0.035541
                          1       3    3pz              10.389228      -1.530415
                                                         3.849621      -1.371928
                                                         1.388401      -0.761951
                                                         0.496955      -0.253695
                                                         0.162492      -0.035541

                          1       4    4px              10.389228      -0.565392
                                                         3.849621      -0.038231
                                                         1.388401      -0.382373
                                                         0.496955       0.179070
                                                         0.162492       0.122714
                          1       4    4py              10.389228      -0.565392
                                                         3.849621      -0.038231
                                                         1.388401      -0.382373
                                                         0.496955       0.179070
                                                         0.162492       0.122714
                          1       4    4pz              10.389228      -0.565392
                                                         3.849621      -0.038231
                                                         1.388401      -0.382373
                                                         0.496955       0.179070
                                                         0.162492       0.122714

                          1       5    4dx2             10.389228       1.867377
                                                         3.849621       0.670994
                                                         1.388401       1.353441
                                                         0.496955       0.273538
                                                         0.162492       0.006620
                          1       5    4dxy             10.389228       3.234392
                                                         3.849621       1.162195
                                                         1.388401       2.344229
                                                         0.496955       0.473781
                                                         0.162492       0.011466
                          1       5    4dxz             10.389228       3.234392
                                                         3.849621       1.162195
                                                         1.388401       2.344229
                                                         0.496955       0.473781
                                                         0.162492       0.011466
                          1       5    4dy2             10.389228       1.867377
                                                         3.849621       0.670994
                                                         1.388401       1.353441
                                                         0.496955       0.273538
                                                         0.162492       0.006620
                          1       5    4dyz             10.389228       3.234392
                                                         3.849621       1.162195
                                                         1.388401       2.344229
                                                         0.496955       0.473781
                                                         0.162492       0.011466
                          1       5    4dz2             10.389228       1.867377
                                                         3.849621       0.670994
                                                         1.388401       1.353441
                                                         0.496955       0.273538
                                                         0.162492       0.006620

       Atomic covalent radius [Angstrom]:                                  0.730

       Atomic van der Waals radius [Angstrom]:                             1.520

     GTH Potential information for                                    GTH-PBE-q6

       Description:                       Goedecker-Teter-Hutter pseudopotential
                                           Goedecker et al., PRB 54, 1703 (1996)
                                          Hartwigsen et al., PRB 58, 3641 (1998)
                                                      Krack, TCA 114, 145 (2005)

       Gaussian exponent of the core charge distribution:               8.360253
       Electronic configuration (s p d ...):                               2   4

       Parameters of the local part of the GTH pseudopotential:

                          rloc        C1          C2          C3          C4
                        0.244554  -16.667215    2.487311

       Parameters of the non-local part of the GTH pseudopotential:

                   l      r(l)      h(i,j,l)

                   0    0.220956   18.337458
                   1    0.211332

     A DFT+U correction is applied to atoms of this atomic kind:
       Angular quantum momentum number L:                                      1
       U(eff) = (U - J) value in [eV]:                                     2.200


 MOLECULE KIND INFORMATION


 All atoms are their own molecule, skipping detailed information


 TOTAL NUMBERS AND MAXIMUM NUMBERS

  Total number of            - Atomic kinds:                                   2
                             - Atoms:                                        192
                             - Shell sets:                                   192
                             - Shells:                                      1152
                             - Primitive Cartesian functions:               1024
                             - Cartesian basis functions:                   3776
                             - Spherical basis functions:                   3328

  Maximum angular momentum of- Orbital basis functions:                        3
                             - Local part of the GTH pseudopotential:          2
                             - Non-local part of the GTH pseudopotential:      3


 MODULE QUICKSTEP: ATOMIC COORDINATES IN ANGSTROM

   Atom Kind Element         X             Y             Z       Z(eff)     Mass
      1    1 Ti   22      0.000000      0.000000      0.000000  12.0000  47.8670
      2    1 Ti   22      1.891270      1.891270      4.807511  12.0000  47.8670
      3    1 Ti   22      0.000000      1.891270      2.403755  12.0000  47.8670
      4    1 Ti   22      1.891270      0.000000      7.211266  12.0000  47.8670
      5    1 Ti   22      0.000000      3.782540      0.000000  12.0000  47.8670
      6    1 Ti   22      1.891270     13.238889      4.807511  12.0000  47.8670
      7    1 Ti   22     11.347620      1.891270      2.403755  12.0000  47.8670
      8    1 Ti   22      5.673810      0.000000      7.211266  12.0000  47.8670
      9    1 Ti   22      1.891270      3.782540      7.211266  12.0000  47.8670
     10    1 Ti   22      0.000000     13.238889      2.403755  12.0000  47.8670
     11    1 Ti   22      5.673810      1.891270      4.807511  12.0000  47.8670
     12    1 Ti   22     11.347620      0.000000      0.000000  12.0000  47.8670
     13    1 Ti   22      3.782540      0.000000      0.000000  12.0000  47.8670
     14    1 Ti   22     13.238889      1.891270      4.807511  12.0000  47.8670
     15    1 Ti   22     13.238889      0.000000      7.211266  12.0000  47.8670
     16    1 Ti   22      3.782540      1.891270      2.403755  12.0000  47.8670
     17    1 Ti   22      1.891270      5.673810      4.807511  12.0000  47.8670
     18    1 Ti   22      0.000000     11.347620      0.000000  12.0000  47.8670
     19    1 Ti   22      0.000000      5.673810      2.403755  12.0000  47.8670
     20    1 Ti   22      1.891270     11.347620      7.211266  12.0000  47.8670
     21    1 Ti   22      0.000000      7.565080      0.000000  12.0000  47.8670
     22    1 Ti   22      1.891270      9.456350      4.807511  12.0000  47.8670
     23    1 Ti   22      7.565080      1.891270      2.403755  12.0000  47.8670
     24    1 Ti   22      9.456350      0.000000      7.211266  12.0000  47.8670
     25    1 Ti   22      1.891270      7.565080      7.211266  12.0000  47.8670
     26    1 Ti   22      0.000000      9.456350      2.403755  12.0000  47.8670
     27    1 Ti   22      9.456350      1.891270      4.807511  12.0000  47.8670
     28    1 Ti   22      7.565080      0.000000      0.000000  12.0000  47.8670
     29    1 Ti   22      3.782540      3.782540      0.000000  12.0000  47.8670
     30    1 Ti   22     13.238889     13.238889      4.807511  12.0000  47.8670
     31    1 Ti   22     11.347620      5.673810      2.403755  12.0000  47.8670
     32    1 Ti   22      5.673810     11.347620      7.211266  12.0000  47.8670
     33    1 Ti   22     13.238889      3.782540      7.211266  12.0000  47.8670
     34    1 Ti   22      3.782540     13.238889      2.403755  12.0000  47.8670
     35    1 Ti   22      5.673810      5.673810      4.807511  12.0000  47.8670
     36    1 Ti   22     11.347620     11.347620      0.000000  12.0000  47.8670
     37    1 Ti   22     11.347620     13.238889      2.403755  12.0000  47.8670
     38    1 Ti   22      5.673810      3.782540      7.211266  12.0000  47.8670
     39    1 Ti   22      3.782540     11.347620      0.000000  12.0000  47.8670
     40    1 Ti   22     13.238889      5.673810      4.807511  12.0000  47.8670
     41    1 Ti   22      5.673810     13.238889      4.807511  12.0000  47.8670
     42    1 Ti   22     11.347620      3.782540      0.000000  12.0000  47.8670
     43    1 Ti   22     13.238889     11.347620      7.211266  12.0000  47.8670
     44    1 Ti   22      3.782540      5.673810      2.403755  12.0000  47.8670
     45    1 Ti   22      3.782540      7.565080      0.000000  12.0000  47.8670
     46    1 Ti   22     13.238889      9.456350      4.807511  12.0000  47.8670
     47    1 Ti   22      7.565080      5.673810      2.403755  12.0000  47.8670
     48    1 Ti   22      9.456350     11.347620      7.211266  12.0000  47.8670
     49    1 Ti   22     13.238889      7.565080      7.211266  12.0000  47.8670
     50    1 Ti   22      3.782540      9.456350      2.403755  12.0000  47.8670
     51    1 Ti   22      9.456350      5.673810      4.807511  12.0000  47.8670
     52    1 Ti   22      7.565080     11.347620      0.000000  12.0000  47.8670
     53    1 Ti   22     11.347620      9.456350      2.403755  12.0000  47.8670
     54    1 Ti   22      5.673810      7.565080      7.211266  12.0000  47.8670
     55    1 Ti   22      5.673810      9.456350      4.807511  12.0000  47.8670
     56    1 Ti   22     11.347620      7.565080      0.000000  12.0000  47.8670
     57    1 Ti   22      9.456350      3.782540      7.211266  12.0000  47.8670
     58    1 Ti   22      7.565080     13.238889      2.403755  12.0000  47.8670
     59    1 Ti   22      7.565080      3.782540      0.000000  12.0000  47.8670
     60    1 Ti   22      9.456350     13.238889      4.807511  12.0000  47.8670
     61    1 Ti   22      7.565080      7.565080      0.000000  12.0000  47.8670
     62    1 Ti   22      9.456350      9.456350      4.807511  12.0000  47.8670
     63    1 Ti   22      7.565080      9.456350      2.403755  12.0000  47.8670
     64    1 Ti   22      9.456350      7.565080      7.211266  12.0000  47.8670
     65    2 O     8      0.000000      0.000000      1.991771   6.0000  15.9994
     66    2 O     8      1.891270      1.891270      6.799282   6.0000  15.9994
     67    2 O     8      0.000000      1.891270      4.395526   6.0000  15.9994
     68    2 O     8      1.891270      0.000000      9.203037   6.0000  15.9994
     69    2 O     8      1.891270      0.000000      5.219495   6.0000  15.9994
     70    2 O     8      0.000000      1.891270      0.411985   6.0000  15.9994
     71    2 O     8      1.891270      1.891270      2.815740   6.0000  15.9994
     72    2 O     8      0.000000      0.000000      7.623251   6.0000  15.9994
     73    2 O     8      0.000000      3.782540      1.991771   6.0000  15.9994
     74    2 O     8      1.891270     13.238889      6.799282   6.0000  15.9994
     75    2 O     8     11.347620      1.891270      4.395526   6.0000  15.9994
     76    2 O     8      5.673810      0.000000      9.203037   6.0000  15.9994
     77    2 O     8      1.891270      3.782540      5.219495   6.0000  15.9994
     78    2 O     8      0.000000     13.238889      0.411985   6.0000  15.9994
     79    2 O     8      5.673810      1.891270      2.815740   6.0000  15.9994
     80    2 O     8     11.347620      0.000000      7.623251   6.0000  15.9994
     81    2 O     8      3.782540      0.000000      7.623251   6.0000  15.9994
     82    2 O     8     13.238889      1.891270      2.815740   6.0000  15.9994
     83    2 O     8     13.238889      0.000000      9.203037   6.0000  15.9994
     84    2 O     8      3.782540      1.891270      4.395526   6.0000  15.9994
     85    2 O     8      1.891270      5.673810      6.799282   6.0000  15.9994
     86    2 O     8      0.000000     11.347620      1.991771   6.0000  15.9994
     87    2 O     8      0.000000      5.673810      0.411985   6.0000  15.9994
     88    2 O     8      1.891270     11.347620      5.219495   6.0000  15.9994
     89    2 O     8      0.000000      7.565080      1.991771   6.0000  15.9994
     90    2 O     8      1.891270      9.456350      6.799282   6.0000  15.9994
     91    2 O     8      7.565080      1.891270      4.395526   6.0000  15.9994
     92    2 O     8      9.456350      0.000000      9.203037   6.0000  15.9994
     93    2 O     8      1.891270      7.565080      5.219495   6.0000  15.9994
     94    2 O     8      0.000000      9.456350      0.411985   6.0000  15.9994
     95    2 O     8      9.456350      1.891270      2.815740   6.0000  15.9994
     96    2 O     8      7.565080      0.000000      7.623251   6.0000  15.9994
     97    2 O     8      3.782540      0.000000      1.991771   6.0000  15.9994
     98    2 O     8     13.238889      1.891270      6.799282   6.0000  15.9994
     99    2 O     8      0.000000      5.673810      4.395526   6.0000  15.9994
    100    2 O     8      1.891270     11.347620      9.203037   6.0000  15.9994
    101    2 O     8     13.238889      0.000000      5.219495   6.0000  15.9994
    102    2 O     8      3.782540      1.891270      0.411985   6.0000  15.9994
    103    2 O     8      1.891270      5.673810      2.815740   6.0000  15.9994
    104    2 O     8      0.000000     11.347620      7.623251   6.0000  15.9994
    105    2 O     8     11.347620      1.891270      0.411985   6.0000  15.9994
    106    2 O     8      5.673810      0.000000      5.219495   6.0000  15.9994
    107    2 O     8      5.673810      1.891270      6.799282   6.0000  15.9994
    108    2 O     8     11.347620      0.000000      1.991771   6.0000  15.9994
    109    2 O     8      1.891270      3.782540      9.203037   6.0000  15.9994
    110    2 O     8      0.000000     13.238889      4.395526   6.0000  15.9994
    111    2 O     8      0.000000      3.782540      7.623251   6.0000  15.9994
    112    2 O     8      1.891270     13.238889      2.815740   6.0000  15.9994
    113    2 O     8      3.782540      3.782540      1.991771   6.0000  15.9994
    114    2 O     8     13.238889     13.238889      6.799282   6.0000  15.9994
    115    2 O     8     11.347620      5.673810      4.395526   6.0000  15.9994
    116    2 O     8      5.673810     11.347620      9.203037   6.0000  15.9994
    117    2 O     8     13.238889      3.782540      5.219495   6.0000  15.9994
    118    2 O     8      3.782540     13.238889      0.411985   6.0000  15.9994
    119    2 O     8      5.673810      5.673810      2.815740   6.0000  15.9994
    120    2 O     8     11.347620     11.347620      7.623251   6.0000  15.9994
    121    2 O     8     11.347620     13.238889      0.411985   6.0000  15.9994
    122    2 O     8      5.673810      3.782540      5.219495   6.0000  15.9994
    123    2 O     8      3.782540     11.347620      7.623251   6.0000  15.9994
    124    2 O     8     13.238889      5.673810      2.815740   6.0000  15.9994
    125    2 O     8      5.673810     13.238889      6.799282   6.0000  15.9994
    126    2 O     8     11.347620      3.782540      1.991771   6.0000  15.9994
    127    2 O     8     13.238889     11.347620      9.203037   6.0000  15.9994
    128    2 O     8      3.782540      5.673810      4.395526   6.0000  15.9994
    129    2 O     8      5.673810      5.673810      6.799282   6.0000  15.9994
    130    2 O     8     11.347620     11.347620      1.991771   6.0000  15.9994
    131    2 O     8     13.238889      3.782540      9.203037   6.0000  15.9994
    132    2 O     8      3.782540     13.238889      4.395526   6.0000  15.9994
    133    2 O     8     11.347620      5.673810      0.411985   6.0000  15.9994
    134    2 O     8      5.673810     11.347620      5.219495   6.0000  15.9994
    135    2 O     8      3.782540      3.782540      7.623251   6.0000  15.9994
    136    2 O     8     13.238889     13.238889      2.815740   6.0000  15.9994
    137    2 O     8     13.238889     11.347620      5.219495   6.0000  15.9994
    138    2 O     8      3.782540      5.673810      0.411985   6.0000  15.9994
    139    2 O     8      5.673810     13.238889      2.815740   6.0000  15.9994
    140    2 O     8     11.347620      3.782540      7.623251   6.0000  15.9994
    141    2 O     8      3.782540     11.347620      1.991771   6.0000  15.9994
    142    2 O     8     13.238889      5.673810      6.799282   6.0000  15.9994
    143    2 O     8     11.347620     13.238889      4.395526   6.0000  15.9994
    144    2 O     8      5.673810      3.782540      9.203037   6.0000  15.9994
    145    2 O     8      3.782540      7.565080      1.991771   6.0000  15.9994
    146    2 O     8     13.238889      9.456350      6.799282   6.0000  15.9994
    147    2 O     8      7.565080      5.673810      4.395526   6.0000  15.9994
    148    2 O     8      9.456350     11.347620      9.203037   6.0000  15.9994
    149    2 O     8     13.238889      7.565080      5.219495   6.0000  15.9994
    150    2 O     8      3.782540      9.456350      0.411985   6.0000  15.9994
    151    2 O     8      9.456350      5.673810      2.815740   6.0000  15.9994
    152    2 O     8      7.565080     11.347620      7.623251   6.0000  15.9994
    153    2 O     8     11.347620      9.456350      0.411985   6.0000  15.9994
    154    2 O     8      5.673810      7.565080      5.219495   6.0000  15.9994
    155    2 O     8      5.673810      9.456350      6.799282   6.0000  15.9994
    156    2 O     8     11.347620      7.565080      1.991771   6.0000  15.9994
    157    2 O     8      9.456350      3.782540      9.203037   6.0000  15.9994
    158    2 O     8      7.565080     13.238889      4.395526   6.0000  15.9994
    159    2 O     8      7.565080      3.782540      7.623251   6.0000  15.9994
    160    2 O     8      9.456350     13.238889      2.815740   6.0000  15.9994
    161    2 O     8      7.565080      0.000000      1.991771   6.0000  15.9994
    162    2 O     8      9.456350      1.891270      6.799282   6.0000  15.9994
    163    2 O     8      0.000000      9.456350      4.395526   6.0000  15.9994
    164    2 O     8      1.891270      7.565080      9.203037   6.0000  15.9994
    165    2 O     8      9.456350      0.000000      5.219495   6.0000  15.9994
    166    2 O     8      7.565080      1.891270      0.411985   6.0000  15.9994
    167    2 O     8      1.891270      9.456350      2.815740   6.0000  15.9994
    168    2 O     8      0.000000      7.565080      7.623251   6.0000  15.9994
    169    2 O     8      7.565080      3.782540      1.991771   6.0000  15.9994
    170    2 O     8      9.456350     13.238889      6.799282   6.0000  15.9994
    171    2 O     8     11.347620      9.456350      4.395526   6.0000  15.9994
    172    2 O     8      5.673810      7.565080      9.203037   6.0000  15.9994
    173    2 O     8      9.456350      3.782540      5.219495   6.0000  15.9994
    174    2 O     8      7.565080     13.238889      0.411985   6.0000  15.9994
    175    2 O     8      5.673810      9.456350      2.815740   6.0000  15.9994
    176    2 O     8     11.347620      7.565080      7.623251   6.0000  15.9994
    177    2 O     8      3.782540      7.565080      7.623251   6.0000  15.9994
    178    2 O     8     13.238889      9.456350      2.815740   6.0000  15.9994
    179    2 O     8     13.238889      7.565080      9.203037   6.0000  15.9994
    180    2 O     8      3.782540      9.456350      4.395526   6.0000  15.9994
    181    2 O     8      9.456350      5.673810      6.799282   6.0000  15.9994
    182    2 O     8      7.565080     11.347620      1.991771   6.0000  15.9994
    183    2 O     8      7.565080      5.673810      0.411985   6.0000  15.9994
    184    2 O     8      9.456350     11.347620      5.219495   6.0000  15.9994
    185    2 O     8      7.565080      7.565080      1.991771   6.0000  15.9994
    186    2 O     8      9.456350      9.456350      6.799282   6.0000  15.9994
    187    2 O     8      7.565080      9.456350      4.395526   6.0000  15.9994
    188    2 O     8      9.456350      7.565080      9.203037   6.0000  15.9994
    189    2 O     8      9.456350      7.565080      5.219495   6.0000  15.9994
    190    2 O     8      7.565080      9.456350      0.411985   6.0000  15.9994
    191    2 O     8      9.456350      9.456350      2.815740   6.0000  15.9994
    192    2 O     8      7.565080      7.565080      7.623251   6.0000  15.9994



 SCF PARAMETERS         Density guess:                                   RESTART
                        --------------------------------------------------------
                        max_scf:                                              40
                        max_scf_history:                                       0
                        max_diis:                                              4
                        --------------------------------------------------------
                        eps_scf:                                        1.00E-06
                        eps_scf_history:                                0.00E+00
                        eps_diis:                                       1.00E-01
                        eps_eigval:                                     1.00E-05
                        --------------------------------------------------------
                        level_shift [a.u.]:                             0.000000
                        --------------------------------------------------------
                        Outer loop SCF in use 
                        No variables optimised in outer loop
                        eps_scf                                         1.00E-06
                        max_scf                                               60
                        No outer loop optimization
                        step_size                                       5.00E-01

 PW_GRID| Information for grid number                                          1
 PW_GRID| Grid distributed over                                   128 processors
 PW_GRID| Real space group dimensions                                   128    1
 PW_GRID| the grid is blocked:                                                NO
 PW_GRID| Cutoff [a.u.]                                                    300.0
 PW_GRID| spherical cutoff:                                                   NO
 PW_GRID|   Bounds   1           -112     112                Points:         225
 PW_GRID|   Bounds   2           -112     112                Points:         225
 PW_GRID|   Bounds   3            -72      71                Points:         144
 PW_GRID| Volume element (a.u.^3)  0.2035E-02     Volume (a.u.^3)     14833.7304
 PW_GRID| Grid span                                                    FULLSPACE
 PW_GRID|   Distribution                         Average         Max         Min
 PW_GRID|   G-Vectors                            56953.1       57150       56925
 PW_GRID|   G-Rays                                 253.1         254         253
 PW_GRID|   Real Space Points                    56953.1       64800       32400

 PW_GRID| Information for grid number                                          2
 PW_GRID| Number of the reference grid                                         1
 PW_GRID| Grid distributed over                                   128 processors
 PW_GRID| Real space group dimensions                                   128    1
 PW_GRID| the grid is blocked:                                                NO
 PW_GRID| Cutoff [a.u.]                                                    100.0
 PW_GRID| spherical cutoff:                                                   NO
 PW_GRID|   Bounds   1            -67      67                Points:         135
 PW_GRID|   Bounds   2            -67      67                Points:         135
 PW_GRID|   Bounds   3            -40      40                Points:          81
 PW_GRID| Volume element (a.u.^3)  0.1005E-01     Volume (a.u.^3)     14833.7304
 PW_GRID| Grid span                                                    FULLSPACE
 PW_GRID|   Distribution                         Average         Max         Min
 PW_GRID|   G-Vectors                            11533.0       12150       10800
 PW_GRID|   G-Rays                                  85.4          90          80
 PW_GRID|   Real Space Points                    11533.0       21870       10935

 PW_GRID| Information for grid number                                          3
 PW_GRID| Number of the reference grid                                         1
 PW_GRID| Grid distributed over                                   128 processors
 PW_GRID| Real space group dimensions                                     8   16
 PW_GRID| the grid is blocked:                                                NO
 PW_GRID| Cutoff [a.u.]                                                     33.3
 PW_GRID| spherical cutoff:                                                   NO
 PW_GRID|   Bounds   1            -37      37                Points:          75
 PW_GRID|   Bounds   2            -37      37                Points:          75
 PW_GRID|   Bounds   3            -24      23                Points:          48
 PW_GRID| Volume element (a.u.^3)  0.5494E-01     Volume (a.u.^3)     14833.7304
 PW_GRID| Grid span                                                    FULLSPACE
 PW_GRID|   Distribution                         Average         Max         Min
 PW_GRID|   G-Vectors                             2109.4        2475        1725
 PW_GRID|   G-Rays                                  28.1          33          23
 PW_GRID|   Real Space Points                     2109.4        2400        1728

 PW_GRID| Information for grid number                                          4
 PW_GRID| Number of the reference grid                                         1
 PW_GRID| Grid distributed over                                   128 processors
 PW_GRID| Real space group dimensions                                     8   16
 PW_GRID| the grid is blocked:                                                NO
 PW_GRID| Cutoff [a.u.]                                                     11.1
 PW_GRID| spherical cutoff:                                                   NO
 PW_GRID|   Bounds   1            -22      22                Points:          45
 PW_GRID|   Bounds   2            -22      22                Points:          45
 PW_GRID|   Bounds   3            -13      13                Points:          27
 PW_GRID| Volume element (a.u.^3)  0.2713         Volume (a.u.^3)     14833.7304
 PW_GRID| Grid span                                                    FULLSPACE
 PW_GRID|   Distribution                         Average         Max         Min
 PW_GRID|   G-Vectors                              427.1         585         270
 PW_GRID|   G-Rays                                   9.5          13           6
 PW_GRID|   Real Space Points                      427.1         486         270

 POISSON| Solver                                                        PERIODIC
 POISSON| Periodicity                                                        XYZ

 RS_GRID| Information for grid number                                          1
 RS_GRID|   Bounds   1           -112     112                Points:         225
 RS_GRID|   Bounds   2           -112     112                Points:         225
 RS_GRID|   Bounds   3            -72      71                Points:         144
 RS_GRID| Real space distribution over                                  8 groups
 RS_GRID| Real space distribution along direction                              1
 RS_GRID| Border size                                                         26
 RS_GRID| Real space distribution over                                 16 groups
 RS_GRID| Real space distribution along direction                              2
 RS_GRID| Border size                                                         26
 RS_GRID|   Distribution                         Average         Max         Min
 RS_GRID|   Planes                                  80.1          81          80
 RS_GRID|   Distribution                         Average         Max         Min
 RS_GRID|   Planes                                  66.1          67          66

 RS_GRID| Information for grid number                                          2
 RS_GRID|   Bounds   1            -67      67                Points:         135
 RS_GRID|   Bounds   2            -67      67                Points:         135
 RS_GRID|   Bounds   3            -40      40                Points:          81
 RS_GRID| Real space distribution over                                  8 groups
 RS_GRID| Real space distribution along direction                              1
 RS_GRID| Border size                                                         24
 RS_GRID| Real space distribution over                                 16 groups
 RS_GRID| Real space distribution along direction                              2
 RS_GRID| Border size                                                         24
 RS_GRID|   Distribution                         Average         Max         Min
 RS_GRID|   Planes                                  64.9          65          64
 RS_GRID|   Distribution                         Average         Max         Min
 RS_GRID|   Planes                                  56.4          57          56

 RS_GRID| Information for grid number                                          3
 RS_GRID|   Bounds   1            -37      37                Points:          75
 RS_GRID|   Bounds   2            -37      37                Points:          75
 RS_GRID|   Bounds   3            -24      23                Points:          48
 RS_GRID| Real space fully replicated
 RS_GRID| Group size                                                           1

 RS_GRID| Information for grid number                                          4
 RS_GRID|   Bounds   1            -22      22                Points:          45
 RS_GRID|   Bounds   2            -22      22                Points:          45
 RS_GRID|   Bounds   3            -13      13                Points:          27
 RS_GRID| Real space fully replicated
 RS_GRID| Group size                                                           1

 BFGS| Use rational function optimization for step estimation:                NO
 BFGS| Use model Hessian for initial guess:                                  YES
 BFGS| Restart Hessian:                                                       NO
 BFGS| Trust radius:                                                       0.472

 *******************************************************************************
 ***                     STARTING GEOMETRY OPTIMIZATION                      ***
 ***                                   BFGS                                  ***
 *******************************************************************************

 Spin 1

 Number of electrons:                                                        768
 Number of occupied orbitals:                                                768
 Number of molecular orbitals:                                               768

 Spin 2

 Number of electrons:                                                        768
 Number of occupied orbitals:                                                768
 Number of molecular orbitals:                                               768

 Number of orbital functions:                                               3328
 Number of independent orbital functions:                                   3328

 Extrapolation method: initial_guess

 *** WARNING in qs_initial_guess.F:306 :: User requested to restart the    ***
 *** wavefunction from the file named: tio2-RESTART.wfn. This file does    ***
 *** not exist. Please check the existence of the file or change properly  ***
 *** the value of the keyword WFN_RESTART_FILE_NAME. Calculation continues ***
 *** using ATOMIC GUESS.                                                   ***


 Atomic guess: The first density matrix is obtained in terms of atomic orbitals
               and electronic configurations assigned to each atomic kind

 Guess for atomic kind: Ti

 Electronic structure
    Total number of core electrons                                         10.00
    Total number of valence electrons                                      12.00
    Total number of electrons                                              22.00
    Multiplicity                                                   not specified
    S   [  2.00  2.00] 2.00  2.00
    P   [  6.00] 6.00
    D      2.00


 *******************************************************************************
                  Iteration          Convergence                     Energy [au]
 *******************************************************************************
                          1         2.59099                     -56.573945749309
                          2        0.737518                     -57.461623245624
                          3        0.123244E-01                 -57.676656834797
                          4        0.338536E-02                 -57.676690535970
                          5        0.252157E-03                 -57.676697146183
                          6        0.162704E-05                 -57.676697160103
                          7        0.846593E-06                 -57.676697160104

 Energy components [Hartree]           Total Energy ::          -57.676697160104
                                        Band Energy ::          -13.440549799540
                                     Kinetic Energy ::           25.008468428381
                                   Potential Energy ::          -82.685165588485
                                      Virial (-V/T) ::            3.306286661467
                                        Core Energy ::          -97.155838374470
                                          XC Energy ::           -6.919409696495
                                     Coulomb Energy ::           46.398550910862
                       Total Pseudopotential Energy ::         -122.259340742080
                       Local Pseudopotential Energy ::         -118.928992669456
                    Nonlocal Pseudopotential Energy ::           -3.330348072625
                                        Confinement ::            0.950339392289

 Orbital energies  State     L     Occupation   Energy[a.u.]          Energy[eV]

                       1     0          2.000      -2.312566          -62.928123
                       2     0          2.000      -0.123060           -3.348633

                       1     1          6.000      -1.385567          -37.703193

                       1     2          2.000      -0.127948           -3.481643


 Total Electron Density at R=0:                                         0.004726

 Guess for atomic kind: O

 Electronic structure
    Total number of core electrons                                          2.00
    Total number of valence electrons                                       6.00
    Total number of electrons                                               8.00
    Multiplicity                                                   not specified
    S   [  2.00] 2.00
    P      4.00


 *******************************************************************************
                  Iteration          Convergence                     Energy [au]
 *******************************************************************************
                          1        0.702811                     -15.577904332270
                          2        0.612408                     -15.588447180504
                          3        0.955344E-02                 -15.655871208406
                          4        0.223754E-02                 -15.655885053552
                          5        0.157183E-02                 -15.655885461027
                          6        0.124953E-02                 -15.655885607150
                          7        0.312011E-06                 -15.655885858066

 Energy components [Hartree]           Total Energy ::          -15.655885858066
                                        Band Energy ::           -2.983128125584
                                     Kinetic Energy ::           11.754765134683
                                   Potential Energy ::          -27.410650992749
                                      Virial (-V/T) ::            2.331875684345
                                        Core Energy ::          -26.153522949072
                                          XC Energy ::           -3.157392363346
                                     Coulomb Energy ::           13.655029454351
                       Total Pseudopotential Energy ::          -37.943026860963
                       Local Pseudopotential Energy ::          -39.220419683052
                    Nonlocal Pseudopotential Energy ::            1.277392822089
                                        Confinement ::            0.347387772086

 Orbital energies  State     L     Occupation   Energy[a.u.]          Energy[eV]

                       1     0          2.000      -0.861522          -23.443215

                       1     1          4.000      -0.315021           -8.572154


 Total Electron Density at R=0:                                         0.000093

 Spin 1
 Re-scaling the density matrix to get the right number of electrons for spin 1
                  # Electrons              Trace(P)               Scaling factor
                          768               768.001                        1.000

 Spin 2
 Re-scaling the density matrix to get the right number of electrons for spin 2
                  # Electrons              Trace(P)               Scaling factor
                          768               768.001                        1.000


 SCF WAVEFUNCTION OPTIMIZATION

  ----------------------------------- OT ---------------------------------------
  Minimizer      : DIIS                : direct inversion
                                         in the iterative subspace
                                         using   7 DIIS vectors
                                         safer DIIS on
  Preconditioner : FULL_SINGLE_INVERSE : inversion of 
                                         H + eS - 2*(Sc)(c^T*H*c+const)(Sc)^T
  Precond_solver : DEFAULT
  stepsize       :    0.08000000                  energy_gap     :    0.08000000
  eps_taylor     :   0.10000E-15                  max_taylor     :             4
  ----------------------------------- OT ---------------------------------------

  Step     Update method      Time    Convergence         Total energy    Change
  ------------------------------------------------------------------------------
     1 OT DIIS     0.80E-01    2.0     0.01004917     -5659.0656100832 -5.66E+03
     2 OT DIIS     0.80E-01    1.5     0.00725768     -5694.0450363548 -3.50E+01
     3 OT DIIS     0.80E-01    1.5     0.00462854     -5726.6856552987 -3.26E+01
     4 OT DIIS     0.80E-01    1.5     0.00366942     -5736.8754663280 -1.02E+01
     5 OT DIIS     0.80E-01    1.5     0.00268119     -5748.5355554067 -1.17E+01
     6 OT DIIS     0.80E-01    1.5     0.00220661     -5755.5177880059 -6.98E+00
     7 OT DIIS     0.80E-01    1.5     0.00184371     -5761.7615495467 -6.24E+00
     8 OT DIIS     0.80E-01    1.5     0.00147752     -5767.7108921006 -5.95E+00
     9 OT DIIS     0.80E-01    1.5     0.00128071     -5771.3352736515 -3.62E+00
    10 OT DIIS     0.80E-01    1.5     0.00099704     -5774.6441414084 -3.31E+00
    11 OT DIIS     0.80E-01    1.5     0.00090966     -5775.4660072267 -8.22E-01
    12 OT DIIS     0.80E-01    1.5     0.00073466     -5777.3047582637 -1.84E+00
    13 OT DIIS     0.80E-01    1.5     0.00060508     -5778.6274666420 -1.32E+00
    14 OT DIIS     0.80E-01    1.5     0.00050117     -5779.5768818870 -9.49E-01
    15 OT DIIS     0.80E-01    1.5     0.00045459     -5780.0472938486 -4.70E-01
    16 OT DIIS     0.80E-01    1.5     0.00038192     -5780.6224837903 -5.75E-01
    17 OT DIIS     0.80E-01    1.5     0.00037278     -5780.7363197332 -1.14E-01
    18 OT DIIS     0.80E-01    1.5     0.00031644     -5781.1007153491 -3.64E-01
    19 OT DIIS     0.80E-01    1.5     0.00027438     -5781.3723679056 -2.72E-01
    20 OT DIIS     0.80E-01    1.5     0.00026040     -5781.4871495912 -1.15E-01
    21 OT DIIS     0.80E-01    1.5     0.00022872     -5781.7294737446 -2.42E-01
    22 OT DIIS     0.80E-01    1.5     0.00020659     -5781.8720139468 -1.43E-01
    23 OT DIIS     0.80E-01    1.5     0.00019751     -5781.9752631323 -1.03E-01
    24 OT DIIS     0.80E-01    1.5     0.00018227     -5782.0392752647 -6.40E-02
    25 OT DIIS     0.80E-01    1.5     0.00016599     -5782.1508604801 -1.12E-01
    26 OT DIIS     0.80E-01    1.5     0.00015051     -5782.2137486613 -6.29E-02
    27 OT DIIS     0.80E-01    1.5     0.00014644     -5782.2688793621 -5.51E-02
    28 OT DIIS     0.80E-01    1.5     0.00013842     -5782.2943042904 -2.54E-02
    29 OT DIIS     0.80E-01    1.5     0.00012976     -5782.3435482989 -4.92E-02
    30 OT DIIS     0.80E-01    1.5     0.00012717     -5782.3666033841 -2.31E-02
    31 OT DIIS     0.80E-01    1.5     0.00012775     -5782.3826644590 -1.61E-02
    32 OT DIIS     0.80E-01    1.5     0.00012359     -5782.3885204399 -5.86E-03
    33 OT DIIS     0.80E-01    1.5     0.00012209     -5782.4006706586 -1.22E-02
    34 OT DIIS     0.80E-01    1.5     0.00012149     -5782.4020879831 -1.42E-03
    35 OT DIIS     0.80E-01    1.5     0.00011943     -5782.4152240786 -1.31E-02
    36 OT DIIS     0.80E-01    1.5     0.00010944     -5782.4908302456 -7.56E-02
    37 OT DIIS     0.80E-01    1.5     0.00011642     -5782.4916342006 -8.04E-04
    38 OT DIIS     0.80E-01    1.5     0.00009956     -5782.5609562354 -6.93E-02
    39 OT SD       0.80E-01    1.5     0.00009996     -5782.5684525236 -7.50E-03
    40 OT DIIS     0.80E-01    1.5     0.00009892     -5782.5725151654 -4.06E-03

  Leaving inner SCF loop after reaching    40 steps.


  Electronic density on regular grids:      -1535.9999999999        0.0000000001
  Core density on regular grids:             1535.9999999995       -0.0000000005
  Total charge density on r-space grids:       -0.0000000004
  Total charge density g-space grids:          -0.0000000004

  Overlap energy of the core charge distribution:               0.00000000000325
  Self energy of the core charge distribution:             -12156.89556134359555
  Core Hamiltonian energy:                                   3260.69017081540460
  Hartree energy:                                            4030.11748244025694
  Exchange-correlation energy:                               -922.69277734130924

  DFT+U energy:                                                 6.20817026388400

  Total energy:                                             -5782.57251516535416

  outer SCF iter =    1 RMS gradient =   0.99E-04 energy =      -5782.5725151654

  ----------------------------------- OT ---------------------------------------
  Minimizer      : DIIS                : direct inversion
                                         in the iterative subspace
                                         using   7 DIIS vectors
                                         safer DIIS on
[...]
 flops   416 x    32 x   208        1465875693568       0.0%    100.0%      0.0%     
 flops   416 x    64 x    64        1846030630912       0.0%    100.0%      0.0%     
 flops    96 x    64 x   208        2377767714816       0.0%    100.0%      0.0%     
 flops    13 x    32 x    13        2443229528064       0.0%    100.0%      0.0%     
 flops    26 x    32 x    26        2522043383808       0.0%    100.0%      0.0%     
 flops    26 x    32 x    13        2522043383808       0.0%    100.0%      0.0%     
 flops    13 x    32 x    26        2522043383808       0.0%    100.0%      0.0%     
 flops   416 x    64 x   208        2971446280192       0.0%    100.0%      0.0%     
 flops inhomo. stacks                    18512816     100.0%      0.0%      0.0%
 flops total                        25.940634E+12       0.0%    100.0%      0.0%
 flops max/rank                    272.510099E+09       0.0%    100.0%      0.0%
 matmuls inhomo. stacks                     26808     100.0%      0.0%      0.0%
 matmuls total                          671904600       0.0%    100.0%      0.0%
 number of processed stacks              16029336       0.2%     99.8%      0.0%
 average stack size                                     1.0      42.0       0.0
 marketing flops                    28.388828E+12
 -------------------------------------------------------------------------------
 # multiplications                          17715
 max memory usage/rank             377.016320E+06
 # max total images/rank                        2
 # max 3D layers                                1
 # MPI messages exchanged                65758080
 MPI messages size (bytes):
  total size                         5.765779E+12
  min size                           0.000000E+00
  max size                         692.224000E+03
  average size                      87.681672E+03
 MPI breakdown and total messages size (bytes):
             size <=      128            39745600                   961216
       128 < size <=     8192             2560320              12259589312
      8192 < size <=    32768             5417984             123689917280
     32768 < size <=   131072             7366656             576402350080
    131072 < size <=  4194304            10667520            5053652398080
   4194304 < size <= 16777216                   0                        0
  16777216 < size                               0                        0
 -------------------------------------------------------------------------------

 *** WARNING in dbcsr_mm.F:301 :: Using a non-square number of MPI ranks ***
 *** might lead to poor performance. Used ranks: 128 Suggested: 121 256  ***

 -------------------------------------------------------------------------------
 -                                                                             -
 -                      DBCSR MESSAGE PASSING PERFORMANCE                      -
 -                                                                             -
 -------------------------------------------------------------------------------
 ROUTINE             CALLS      AVE VOLUME [Bytes]
 MP_Bcast               50                     12.
 MP_Allreduce        89022                     13.
 MP_Alltoall         68985                  30288.
 MP_ISend          1112636                  43070.
 MP_IRecv          1109032                  42919.
 -------------------------------------------------------------------------------

 -------------------------------------------------------------------------------
 -                                                                             -
 -                                DBM STATISTICS                               -
 -                                                                             -
 -------------------------------------------------------------------------------
    M  x    N  x    K                                          COUNT     PERCENT
 -------------------------------------------------------------------------------

 -------------------------------------------------------------------------------
 -                                                                             -
 -                                GRID STATISTICS                              -
 -                                                                             -
 -------------------------------------------------------------------------------
 LP    KERNEL             BACKEND                              COUNT     PERCENT
 5     collocate ortho    CPU                               36321856      24.73%
 5     integrate ortho    CPU                               34988554      23.82%
 6     integrate ortho    CPU                               19342088      13.17%
 6     collocate ortho    CPU                               18584544      12.65%
 4     collocate ortho    CPU                               16613774      11.31%
 4     integrate ortho    CPU                               15610840      10.63%
 0     integrate general  CPU                                2752512       1.87%
 0     collocate general  CPU                                1548288       1.05%
 7     integrate ortho    CPU                                 961620       0.65%
 1     integrate general  CPU                                 147456       0.10%
 2     collocate ortho    CPU                                  17920       0.01%
 3     collocate ortho    CPU                                  10752       0.01%
 -------------------------------------------------------------------------------

 MEMORY| Estimated peak process memory [MiB]                                 360

 -------------------------------------------------------------------------------
 ----                             MULTIGRID INFO                            ----
 -------------------------------------------------------------------------------
 count for grid        1:        2101826          cutoff [a.u.]          300.00
 count for grid        2:        1913904          cutoff [a.u.]          100.00
 count for grid        3:        2256756          cutoff [a.u.]           33.33
 count for grid        4:        2324093          cutoff [a.u.]           11.11
 total gridlevel count  :        8596579

 -------------------------------------------------------------------------------
 -                                                                             -
 -                         MESSAGE PASSING PERFORMANCE                         -
 -                                                                             -
 -------------------------------------------------------------------------------

 ROUTINE             CALLS      AVE VOLUME [Bytes]
 MP_Group                4
 MP_Bcast            13548                  29469.
 MP_Allreduce        37493                    447.
 MP_Sync              2008
 MP_Alltoall          5016                2223932.
 MP_SendRecv         66040                  11544.
 MP_ISendRecv        58420                  11544.
 MP_Wait             88704
 MP_comm_split        1024
 MP_ISend            54308                  80000.
 MP_IRecv            54008                  80427.
 MP_Write_All           42                 355816.
 -------------------------------------------------------------------------------


 -------------------------------------------------------------------------------
 -                                                                             -
 -                           R E F E R E N C E S                               -
 -                                                                             -
 -------------------------------------------------------------------------------
 
 CP2K version 2024.3, the CP2K developers group (2024).
 CP2K is freely available from https://www.cp2k.org/ .
 
 T. D. Kuehne, M. Iannuzzi, M. Del Ben, V. V. Rybkin, P. Seewald, F. Stein, T. 
 Laino, R. Z. Khaliullin, O. Schuett, F. Schiffmann, D. Golze, J. Wilhelm, S. 
 Chulkov, M. H. Bani-Hashemian, V. Weber, U. Borstnik, M. Taillefumier, A. S. 
 Jakobovits, A. Lazzaro, H. Pabst, T. Mueller, R. Schade, M. Guidon, S. 
 Andermatt, N. Holmberg, G. K. Schenter, A. Hehn, A. Bussy, F. Belleflamme, G. 
 Tabacchi, A. Gloess, M. Lass, I. Bethune, C. J. Mundy, C. Plessl, M. Watkins, 
 J. VandeVondele, M. Krack, J. Hutter.
 J. Chem. Phys. 152, 194103 (2020).
 CP2K: An electronic structure and molecular dynamics software package - 
 Quickstep: Efficient and accurate electronic structure calculations.
 https://doi.org/10.1063/5.0007045

 O. Schuett, P. Messmer, J. Hutter, J. VandeVondele.
 Electronic Structure Calculations on Graphics Processing Units, 173-190 (2016).
 GPU-Accelerated Sparse Matrix-Matrix Multiplication for Linear Scaling Density 
 Functional Theory.
 https://doi.org/10.1002/9781118670712.ch8

 A. Heinecke, G. Henry, M. Hutchinson, H. Pabst.
 Proceedings of Intl. Supercomputing Conference, 981-991 (2016).
 LIBXSMM: Accelerating Small Matrix Multiplications by Runtime Code Generation.
 https://doi.org/10.1109/SC.2016.83

 J. Hutter, M. Iannuzzi, F. Schiffmann, J. VandeVondele.
 WIREs Comput Mol Sci. 4, 15-25 (2014).
 CP2K: atomistic simulations of condensed matter systems.
 https://doi.org/10.1002/wcms.1159

 U. Borstnik, J. VandeVondele, V. Weber, J. Hutter.
 Parallel Comput. 40, 47-58 (2014).
 Sparse matrix multiplication: The distributed block-compressed sparse row 
 library.
 https://doi.org/10.1016/j.parco.2014.03.012

 A. Marek, V. Blum, R. Johanni, V. Havu, B. Lang, T. Auckenthaler, A. Heinecke, 
 H. Bungartz, H. Lederer.
 J. Phys. Condens. Matter 26, 213201 (2014).
 The ELPA library: scalable parallel eigenvalue solutions for electronic 
 structure theory and computational science.
 https://doi.org/10.1088/0953-8984/26/21/213201

 J. VandeVondele, J. Hutter.
 J. Chem. Phys. 127, 114105 (2007).
 Gaussian basis sets for accurate calculations on molecular systems in gas and 
 condensed phases.
 https://doi.org/10.1063/1.2770708

 T. D. Khne, M. Krack, F. R. Mohamed, M. Parrinello.
 Phys. Rev. Lett. 98, 066401 (2007).
 Efficient and accurate Car-Parrinello-like approach to Born-Oppenheimer 
 molecular dynamics.
 https://doi.org/10.1103/PhysRevLett.98.066401

 J. VandeVondele, M. Krack, F. Mohamed, M. Parrinello, T. Chassaing, J. Hutter.
 Comput. Phys. Commun. 167, 103-128 (2005).
 QUICKSTEP: Fast and accurate density functional calculations using a mixed 
 Gaussian and plane waves approach.
 https://doi.org/10.1016/j.cpc.2004.12.014

 M. Krack.
 Theor. Chem. Acc. 114, 145-152 (2005).
 Pseudopotentials for H to Kr optimized for gradient-corrected 
 exchange-correlation functionals.
 https://doi.org/10.1007/s00214-005-0655-y

 M. Frigo, S. G. Johnson.
 Proc. IEEE 93, 216-231 (2005).
 The design and implementation of FFTW3.
 https://doi.org/10.1109/JPROC.2004.840301

 J. Kolafa.
 J. Comput. Chem. 25, 335-342 (2004).
 Time-reversible always stable predictor-corrector method for molecular dynamics 
 of polarizable molecules.
 https://doi.org/10.1002/jcc.10385

 J. VandeVondele, J. Hutter.
 J. Chem. Phys. 118, 4365-4369 (2003).
 An efficient orbital transformation method for electronic structure 
 calculations.
 https://doi.org/10.1063/1.1543154

 C. Hartwigsen, S. Goedecker, J. Hutter.
 Phys. Rev. B 58, 3641-3662 (1998).
 Relativistic separable dual-space Gaussian pseudopotentials from H to Rn.
 https://doi.org/10.1103/PhysRevB.58.3641

 S. L. Dudarev, G. A. Botton, S. Y. Savrasov, C. J. Humphreys, A. P. Sutton.
 Phys. Rev. B 57, 1505-1509 (1998).
 Electron-energy-loss spectra and the structural stability of nickel oxide: An 
 LSDA+U study.
 https://doi.org/10.1103/PhysRevB.57.1505

 G. Lippert, J. Hutter, M. Parrinello.
 Mol. Phys. 92, 477-487 (1997).
 A hybrid Gaussian and plane wave density functional scheme.
 https://doi.org/10.1080/002689797170220

 S. L. Dudarev, D. N. Manh, A. P. Sutton.
 Philos. Mag. B 75, 613-628 (1997).
 Effect of Mott-Hubbard correlations on the electronic structure and structural 
 stability of uranium dioxide.
 https://doi.org/10.1080/13642819708202343

 S. Goedecker, M. Teter, J. Hutter.
 Phys. Rev. B 54, 1703-1710 (1996).
 Separable dual-space Gaussian pseudopotentials.
 https://doi.org/10.1103/PhysRevB.54.1703

 J. P. Perdew, K. Burke, M. Ernzerhof.
 Phys. Rev. Lett. 77, 3865-3868 (1996).
 Generalized gradient approximation made simple.
 https://doi.org/10.1103/PhysRevLett.77.3865


 -------------------------------------------------------------------------------
 -                                                                             -
 -                                T I M I N G                                  -
 -                                                                             -
 -------------------------------------------------------------------------------
 SUBROUTINE                       CALLS  ASD         SELF TIME        TOTAL TIME
                                MAXIMUM       AVERAGE  MAXIMUM  AVERAGE  MAXIMUM
 CP2K                                 1  1.0    0.101    0.116  251.841  251.847
 cp_geo_opt                           1  2.0    0.003    0.005  251.136  251.138
 geoopt_bfgs                          1  3.0    0.029    0.038  251.132  251.135
 cp_eval_at                           7  4.0    0.007    0.011  250.360  250.637
 qs_energies                          7  5.9    0.007    0.010  234.707  234.988
 qs_forces                            6  5.0    0.013    0.017  228.382  228.386
 scf_env_do_scf                       7  6.9    0.005    0.008  159.930  159.932
 scf_env_do_scf_inner_loop          109  7.9    0.008    0.028  149.317  149.571
 rebuild_ks_matrix                  115  9.8    0.002    0.003   84.110   84.315
 qs_ks_build_kohn_sham_matrix       115 10.8    0.032    0.037   84.109   84.313
 qs_ks_update_qs_env                117  8.9    0.002    0.003   77.437   77.634
 dbcsr_multiply_generic           17715 12.3    0.594    0.633   63.031   64.339
 scf_post_calculation_gpw             7  6.9    0.005    0.008   63.346   63.350
 sum_up_and_integrate               115 11.8    0.007    0.011   53.677   53.707
 integrate_v_rspace                 230 12.8    0.009    0.014   53.536   53.617
 qs_rho_update_rho_low              116  9.0    0.002    0.003   47.666   47.682
 calculate_rho_elec                 232 10.0    0.086    0.098   47.665   47.680
 multiply_cannon                  17715 13.3    3.703    4.029   41.539   46.516
 grid_integrate_task_list           230 13.8   38.924   40.656   38.924   40.656
 multiply_cannon_loop             17715 14.3    1.272    1.391   33.512   38.142
 make_lumo_gpw                        7  7.9    0.002    0.002   35.852   35.854
 ot_eigensolver                      14  8.9    0.015    0.017   35.726   35.728
 grid_collocate_task_list           232 11.0   34.416   35.680   34.416   35.680
 qs_scf_new_mos                     109  8.9    0.001    0.001   32.268   32.537
 qs_scf_loop_do_ot                  109  9.9    0.001    0.003   32.267   32.536
 ot_scf_mini                        109 10.9    0.004    0.006   29.868   30.058
 ot_mini                           1031 10.1    0.014    0.017   29.571   29.818
 fft_wrap_pw1pw2                   3952 14.0    0.076    0.093   25.825   29.003
 fft_wrap_pw1pw2_300               2482 15.6    0.982    1.061   23.947   27.125
 mp_waitall_1                   2048516 16.4   19.042   25.705   19.042   25.705
 qs_vxc_create                      115 11.8    0.003    0.005   24.176   24.374
 xc_vxc_pw_create                   115 12.8    0.441    0.563   24.172   24.371
 fft3d_ps                          3952 16.0    7.729    8.505   20.306   24.008
 multiply_cannon_metrocomm3      283440 15.3    0.679    0.750   14.210   21.714
 qs_ot_get_derivative               686 11.5    0.005    0.006   21.456   21.585
 write_available_results              7  7.9    0.002    0.004   21.317   21.333
 multiply_cannon_multrec         283440 15.3   11.791   21.026   11.851   21.086
 write_mo_free_results                7  8.9    0.809    0.828   21.065   21.080
 xc_pw_derive                      1380 14.8    0.013    0.014   16.336   19.173
 mp_alltoall_z22v                  3952 18.0   10.423   16.191   10.423   16.191
 qs_ot_get_p                       1184 10.2    0.009    0.010   14.761   15.325
 make_m2s                         35430 13.3    0.464    0.490   14.135   14.905
 density_rs2pw                      232 11.0    0.015    0.018   12.045   13.406
 xc_rho_set_and_dset_create         115 13.8    0.395    0.620   12.579   13.263
 xc_pw_divergence                   230 13.8    0.005    0.007   10.770   13.012
 make_images                      35430 14.3    0.913    0.987   11.463   12.120
 potential_pw2rs                    230 13.8    0.018    0.021   11.720   11.795
 transfer_rs2pw                    1054 11.7    0.017    0.024    8.864   11.288
 hirshfeld_integration               14  9.9   10.008   10.572   10.933   10.939
 init_scf_loop                        8  7.9    0.003    0.005   10.356   10.361
 mp_waitany                       24268 15.1    7.429   10.193    7.429   10.193
 qs_ot_get_derivative_diag          530 12.3    0.010    0.012    9.968   10.052
 yz_to_x                           1447 17.1    0.610    0.855    5.963    9.769
 qs_ot_p2m_diag                     990 11.1    0.066    0.085    9.603    9.687
 transfer_pw2rs                     940 14.7    0.013    0.015    9.060    9.105
 build_core_hamiltonian_matrix_       6  6.0    0.000    0.000    7.269    8.769
 multiply_cannon_metrocomm4      265725 15.3    0.657    0.732    3.105    8.391
 transfer_rs2pw_300                 274 12.7    1.991    2.524    6.128    8.378
 mp_sum_d                         15294 13.7    5.434    8.173    5.434    8.173
 apply_preconditioner_dbcsr         730 12.5    0.002    0.003    7.139    7.722
 apply_single                       730 13.5    0.002    0.002    7.137    7.720
 x_to_yz                           1525 17.5    1.011    1.302    6.012    7.558
 mp_irecv_dv                     557565 16.3    2.380    7.389    2.380    7.389
 mp_sum_l                         83942 13.4    4.462    7.048    4.462    7.048
 qs_ks_update_qs_env_forces           6  6.0    0.000    0.000    6.829    6.844
 transfer_pw2rs_300                 250 15.4    3.102    3.323    6.398    6.752
 cp_dbcsr_syevd                     990 12.1    0.309    0.331    6.663    6.671
 cp_fm_redistribute_end            1024 14.0    3.094    5.956    3.122    5.979
 pw_to_cube                          42  9.2    2.802    3.357    5.889    5.892
 qs_energies_init_hamiltonians        7  6.9    0.004    0.008    5.499    5.778
 cp_fm_diag_elpa                    134 14.0    0.001    0.002    5.697    5.719
 mp_alltoall_d11v                 16131 14.8    4.248    5.474    4.248    5.474
 init_scf_run                         7  6.9    0.003    0.005    5.456    5.456
 scf_env_initial_rho_setup            7  7.9    0.001    0.003    5.453    5.456
 cp_fm_diag_elpa_base               134 15.0    2.676    5.365    2.699    5.419
 make_images_data                 35430 15.3    0.353    0.463    4.359    5.287
 -------------------------------------------------------------------------------

 The number of warnings for this run is : 2
 
 -------------------------------------------------------------------------------
  **** **** ******  **  PROGRAM ENDED AT                 2025-06-19 09:17:54.601
 ***** ** ***  *** **   PROGRAM RAN ON                                 nid003483
 **    ****   ******    PROGRAM RAN BY                                    cahart
 ***** **    ** ** **   PROGRAM PROCESS ID                                184337
  **** **  *******  **  PROGRAM STOPPED IN /mnt/lustre/a2fs-work2/work/e05/e05/c
                                           ahart/postdoc2/work/group/tio2/anatas
                                           e/cell-441/geo-opt/mp-390/neutral/pbe
                                           -u-o/u-2.2
