     192
 i =        1, E =     -5782.9389180541
Ti         0.0006646039        0.0006637617       -0.0000011691
Ti        -0.0006951889       -0.0006966896        0.0000012248
Ti         0.0006663552       -0.0007177560       -0.0005878361
Ti        -0.0007169592        0.0006674710        0.0005901777
Ti         0.0006697700       -0.0011785477        0.0002868493
Ti        -0.0007180811       -0.0007129323       -0.0005889619
Ti         0.0006808931       -0.0007007644        0.0000016152
Ti        -0.0002319862        0.0006731227        0.0004169122
Ti        -0.0006706477       -0.0011703908        0.0002974920
Ti         0.0006657749       -0.0007117963        0.0000025554
Ti        -0.0002345285       -0.0006543831        0.0001722610
Ti         0.0007029148        0.0006652032       -0.0005856181
Ti        -0.0011796086        0.0006700971       -0.0002854757
Ti        -0.0007109315       -0.0007157307        0.0005931163
Ti        -0.0007088823        0.0006667387       -0.0000017749
Ti        -0.0011671291       -0.0006769471       -0.0002950299
Ti        -0.0006560509       -0.0002301589       -0.0001718964
Ti         0.0006668574        0.0007015595        0.0005880986
Ti         0.0006736151       -0.0002303979       -0.0004143808
Ti        -0.0007010814        0.0006818770       -0.0000010467
Ti         0.0006729281        0.0002745221        0.0004163709
Ti        -0.0006750323        0.0011831467       -0.0002992097
Ti         0.0002796395       -0.0006581352       -0.0001701594
Ti         0.0011895422        0.0006695208        0.0002813152
Ti        -0.0006571829        0.0002802450        0.0001683026
Ti         0.0006706968        0.0011914184       -0.0002793338
Ti         0.0011818765       -0.0006716171        0.0002987659
Ti         0.0002751354        0.0006721246       -0.0004164894
Ti        -0.0011523079       -0.0011498754       -0.0000013616
Ti        -0.0007046737       -0.0007074819        0.0000019472
Ti         0.0006382436       -0.0002346252        0.0001691501
Ti        -0.0002346769        0.0006394277       -0.0001707823
Ti        -0.0007135750       -0.0011844666       -0.0002902136
Ti        -0.0011797863       -0.0007103287        0.0002892112
Ti        -0.0002340189       -0.0002370156       -0.0000016021
Ti         0.0006825125        0.0006820243       -0.0000004592
Ti         0.0007015243       -0.0007081388        0.0005896446
Ti        -0.0002358819       -0.0011409135        0.0001136787
Ti        -0.0011711093        0.0006543619        0.0002946768
Ti        -0.0007110844       -0.0002295419        0.0004155202
Ti        -0.0002315832       -0.0007120195       -0.0004166676
Ti         0.0006554700       -0.0011686439       -0.0002947387
Ti        -0.0007091793        0.0007037560       -0.0005922568
Ti        -0.0011396519       -0.0002358919       -0.0001175518
Ti        -0.0011412517        0.0002776916        0.0001171248
Ti        -0.0007079783        0.0011933797        0.0002830205
Ti         0.0002811137       -0.0002357409        0.0000025103
Ti         0.0011807294        0.0006573470       -0.0003003963
Ti        -0.0007121420        0.0002777027       -0.0004213121
Ti        -0.0011538707        0.0011631006        0.0000034365
Ti         0.0011509363       -0.0002348724        0.0001186772
Ti         0.0002776725        0.0006389259        0.0001676343
Ti         0.0006561369        0.0011789452        0.0002994743
Ti        -0.0002361327        0.0002807518       -0.0000001095
Ti        -0.0002360520        0.0011532243       -0.0001166198
Ti         0.0006378532        0.0002779005       -0.0001655164
Ti         0.0011614823       -0.0011514424       -0.0000043711
Ti         0.0002777432       -0.0007107242        0.0004195808
Ti         0.0002792223       -0.0011401624       -0.0001162230
Ti         0.0011925023       -0.0007104325       -0.0002830761
Ti         0.0002793078        0.0002791190        0.0000006481
Ti         0.0011651467        0.0011633325       -0.0000011523
Ti         0.0002849495        0.0011475507        0.0001204266
Ti         0.0011492825        0.0002812869       -0.0001234469
O        -0.0001349844        0.0000341440       -0.0000942636
O         0.0004076584        0.0002758960        0.0001696436
O         0.0000556145        0.0004421024        0.0002609938
O         0.0002967933       -0.0001258330       -0.0001531153
O         0.0004435903        0.0000498382       -0.0002602755
O        -0.0001255919        0.0002968400        0.0001564144
O         0.0002791565        0.0004124957       -0.0001723756
O         0.0000298918       -0.0001359321        0.0000936455
O        -0.0001182923       -0.0006435766       -0.0001332473
O         0.0004424280       -0.0000639695        0.0002642279
O        -0.0002994409        0.0004179133        0.0001793112
O        -0.0001359784       -0.0001128517       -0.0003017712
O         0.0003623540       -0.0006411326       -0.0001784886
O        -0.0001395687       -0.0000418360        0.0000904089
O        -0.0001377416        0.0003535800       -0.0000012165
O        -0.0003156278       -0.0001248898        0.0001501909
O        -0.0006425977       -0.0001184236        0.0001299410
O        -0.0000681871        0.0004415384       -0.0002665251
O        -0.0000385738       -0.0001393163       -0.0000942111
O        -0.0006423413        0.0003649528        0.0001760460
O         0.0003459034       -0.0001382748        0.0000017781
O        -0.0001245393       -0.0003118890       -0.0001486969
O        -0.0001155023       -0.0001385071        0.0003015856
O         0.0004212553       -0.0003034925       -0.0001786190
O        -0.0001135347        0.0001563083       -0.0003008311
O         0.0003662702        0.0006347307        0.0001853667
O         0.0001531005        0.0003535041        0.0000037648
O         0.0006400123       -0.0001193338       -0.0001264095
O         0.0003563868        0.0001528949       -0.0000040734
O        -0.0001181661        0.0006375680        0.0001255697
O         0.0006357609        0.0003659737       -0.0001847077
O         0.0001537416       -0.0001133037        0.0002984952
O        -0.0006238321        0.0000939291        0.0003260008
O         0.0001416903        0.0002947187       -0.0001579115
O         0.0001156171       -0.0006126880        0.0003479771
O         0.0002814897       -0.0004293952        0.0001650552
O         0.0001618534        0.0000290022        0.0000991226
O        -0.0006097391        0.0002933675       -0.0002376827
O         0.0003172187       -0.0006026988       -0.0002715550
O         0.0000564606       -0.0004650807       -0.0002536432
O        -0.0004333320        0.0002798238       -0.0001662309
O        -0.0006118563        0.0001131382       -0.0003454423
O        -0.0006016975        0.0003187797        0.0002730638
O        -0.0004657830        0.0000578618        0.0002515860
O         0.0002925918       -0.0006084110        0.0002391432
O         0.0000293211        0.0001639196       -0.0001026997
O         0.0000959145       -0.0006203496       -0.0003284770
O         0.0002961856        0.0001382831        0.0001599938
O        -0.0005957965       -0.0006163245        0.0002636736
O         0.0001552416       -0.0000415146       -0.0000930853
O        -0.0003348283       -0.0006036358        0.0002787574
O        -0.0001371028       -0.0003658169       -0.0000002520
O         0.0001349168       -0.0006434890        0.0001357838
O        -0.0006232674       -0.0001061543       -0.0003293646
O        -0.0001236650       -0.0005960601       -0.0002010765
O        -0.0003005317       -0.0004381320       -0.0001741762
O        -0.0004665635       -0.0000648732       -0.0002591934
O        -0.0006023990       -0.0005920116       -0.0003484495
O        -0.0006420699       -0.0003797078       -0.0001737093
O        -0.0001265947       -0.0006092364       -0.0003496430
O        -0.0006084144       -0.0001266943        0.0003469257
O        -0.0003779027       -0.0006414207        0.0001732530
O        -0.0000659995       -0.0004643060        0.0002591161
O        -0.0005897803       -0.0006017962        0.0003445973
O        -0.0005962500       -0.0001229679        0.0002021400
O        -0.0004319569       -0.0002980487        0.0001753669
O        -0.0001044001       -0.0006247745        0.0003292954
O        -0.0006466657        0.0001404326       -0.0001371178
O        -0.0003679150       -0.0001364860        0.0000001233
O        -0.0006046458       -0.0003403296       -0.0002773441
O        -0.0006149685       -0.0005939266       -0.0002618826
O        -0.0000444185        0.0001536338        0.0000954401
O         0.0001459140       -0.0003195078        0.0001540537
O        -0.0005819988       -0.0001300420       -0.0000884988
O        -0.0001368965        0.0001224311        0.0003022580
O        -0.0003113605       -0.0006061359       -0.0002436664
O        -0.0006056329       -0.0003073218        0.0002447761
O         0.0001267047       -0.0001382674       -0.0003023332
O        -0.0003167379        0.0001468951       -0.0001548853
O        -0.0001302085       -0.0005827134        0.0000881267
O        -0.0005803562        0.0001486666        0.0000917338
O         0.0001295362        0.0006397190       -0.0001272974
O         0.0001354407       -0.0005993875        0.0002024527
O         0.0006354863       -0.0003798632        0.0001816863
O         0.0001288490        0.0001521202        0.0003010407
O        -0.0005949239        0.0006067551       -0.0002692243
O         0.0005791783       -0.0005994431       -0.0003518671
O         0.0001546594       -0.0003687506       -0.0000005791
O        -0.0003819643        0.0006340609       -0.0001831979
O        -0.0005992405        0.0001373412       -0.0002023332
O        -0.0005986725        0.0005820707        0.0003517351
O        -0.0003647590        0.0001549682       -0.0000002574
O         0.0006107386       -0.0005970131        0.0002690352
O         0.0001518770        0.0001330793       -0.0003022942
O         0.0001474598       -0.0005812665       -0.0000881368
O         0.0006388302        0.0001276585        0.0001279406
O         0.0006611813        0.0001187544        0.0003480428
O         0.0005659876        0.0002905488        0.0002344141
O         0.0000843924        0.0005802765        0.0003243194
O         0.0003141136        0.0006534517        0.0002738306
O         0.0005812797        0.0000855981       -0.0003240894
O         0.0006532105        0.0003191693       -0.0002758915
O         0.0002920043        0.0005635255       -0.0002351039
O         0.0001169985        0.0006604912       -0.0003452999
O         0.0006496064       -0.0005900760        0.0003462474
O         0.0005802946       -0.0000974597        0.0003286915
O        -0.0003139609        0.0005678161        0.0002423582
O        -0.0001226807        0.0006472435        0.0001996992
O         0.0005549999       -0.0006219792       -0.0002574893
O         0.0006605981       -0.0001296089       -0.0003479879
O        -0.0001288806        0.0005425646       -0.0000841060
O        -0.0003311600        0.0006530815       -0.0002758247
O        -0.0005879438        0.0006503747       -0.0003463636
O        -0.0001046978        0.0005794228       -0.0003289798
O        -0.0001233460        0.0006609211        0.0003482586
O        -0.0006235515        0.0005549969        0.0002563041
O         0.0005431292       -0.0001280705        0.0000828509
O         0.0006531511       -0.0003313020        0.0002775887
O         0.0006465418       -0.0001220774       -0.0001999310
O         0.0005686925       -0.0003131762       -0.0002419738
O         0.0006452127        0.0001402406        0.0001961121
O         0.0005561031        0.0006135157        0.0002642580
O         0.0001428907        0.0005463764        0.0000843385
O         0.0005805738        0.0006506131        0.0003489584
O         0.0005467243        0.0001415726       -0.0000836420
O         0.0006500899        0.0005811724       -0.0003505348
O         0.0006113455        0.0005571362       -0.0002625806
O         0.0001388127        0.0006457513       -0.0001967790
     192
 i =        2, E =     -5782.9394627983
Ti         0.0000591862        0.0000619637       -0.0000017276
Ti        -0.0005247607       -0.0005269139        0.0000001642
Ti         0.0000597877       -0.0005235413        0.0004948608
Ti        -0.0005273008        0.0000605930       -0.0004958058
Ti         0.0000646737       -0.0010553483        0.0000371267
Ti        -0.0005282700       -0.0000730725        0.0004858170
Ti         0.0004932901       -0.0005278261       -0.0000171604
Ti        -0.0006799930        0.0000588224       -0.0000586887
Ti        -0.0005244591       -0.0010545422       -0.0005284295
Ti         0.0000603527       -0.0000741135        0.0000095870
Ti        -0.0006708723       -0.0005328974       -0.0004489977
Ti         0.0004973851        0.0000604506        0.0005169259
Ti        -0.0010600506        0.0000639648       -0.0000342076
Ti        -0.0000750625       -0.0005266572       -0.0004819201
Ti        -0.0000742499        0.0000621464       -0.0000086858
Ti        -0.0010525967       -0.0005281547        0.0005317646
Ti        -0.0005353410       -0.0006730862        0.0004507355
Ti         0.0000613938        0.0004935899       -0.0005120440
Ti         0.0000592384       -0.0006808903        0.0000624221
Ti        -0.0005264541        0.0004944340        0.0000205079
Ti         0.0000581712        0.0007385116       -0.0000628473
Ti        -0.0005258781        0.0010346933        0.0005202681
Ti         0.0007277455       -0.0005336066        0.0004501367
Ti         0.0010435953        0.0000624002        0.0000236645
Ti        -0.0005350712        0.0007278880       -0.0004532995
Ti         0.0000636545        0.0010426658       -0.0000253000
Ti         0.0010359982       -0.0005268944       -0.0005202098
Ti         0.0007416400        0.0000586668        0.0000578527
Ti        -0.0010406312       -0.0010421000       -0.0000017521
Ti        -0.0000743349       -0.0000778701       -0.0000014985
Ti         0.0005020643       -0.0006711402       -0.0004682102
Ti        -0.0006724947        0.0005040836        0.0004651782
Ti        -0.0000792098       -0.0010640368       -0.0000480821
Ti        -0.0010626779       -0.0000751436        0.0000458261
Ti        -0.0006657874       -0.0006697304       -0.0000028401
Ti         0.0004959541        0.0004944842       -0.0000020770
Ti         0.0004947476       -0.0000724705       -0.0005029252
Ti        -0.0006626601       -0.0010480949       -0.0000638390
Ti        -0.0010540829        0.0004954961       -0.0005499694
Ti        -0.0000756466       -0.0006817728       -0.0000557466
Ti        -0.0006838918       -0.0000762637        0.0000532056
Ti         0.0004943112       -0.0010517866        0.0005462435
Ti        -0.0000742723        0.0004968921        0.0005022455
Ti        -0.0010464561       -0.0006645498        0.0000593939
Ti        -0.0010455626        0.0007206521       -0.0000587970
Ti        -0.0000785768        0.0010422701        0.0000333828
Ti         0.0007228125       -0.0006631091        0.0000027004
Ti         0.0010367616        0.0004954265        0.0005393243
Ti        -0.0000763657        0.0007412008        0.0000519924
Ti        -0.0010460346        0.0010262423        0.0000122015
Ti         0.0010295833       -0.0006656860       -0.0000464665
Ti         0.0007278190        0.0005009873       -0.0004672635
Ti         0.0004951041        0.0010380341       -0.0005368568
Ti        -0.0006641447        0.0007245761        0.0000030308
Ti        -0.0006706382        0.0010293598        0.0000525498
Ti         0.0005029375        0.0007283945        0.0004700763
Ti         0.0010259478       -0.0010418581       -0.0000097625
Ti         0.0007406005       -0.0000766271       -0.0000518008
Ti         0.0007209661       -0.0010445230        0.0000608934
Ti         0.0010430805       -0.0000824698       -0.0000328907
Ti         0.0007239592        0.0007234099       -0.0000015263
Ti         0.0010218081        0.0010235952       -0.0000020900
Ti         0.0007206674        0.0010293203       -0.0000477379
Ti         0.0010308021        0.0007216974        0.0000457015
O         0.0000285184        0.0000335290       -0.0002966107
O         0.0002971262       -0.0000103675        0.0003635571
O         0.0000136528        0.0002938110        0.0000575508
O         0.0000040429        0.0000263224        0.0000267681
O         0.0002939214        0.0000102739       -0.0000588971
O         0.0000266277        0.0000047040       -0.0000262459
O        -0.0000052804        0.0002972310       -0.0003646723
O         0.0000350052        0.0000279338        0.0002973022
O         0.0000202975        0.0002277632       -0.0006572982
O         0.0002901255        0.0000129283        0.0000695375
O         0.0000130094        0.0002988762        0.0003921430
O         0.0000951095        0.0000113107       -0.0005943973
O         0.0003026649        0.0002066771        0.0003207960
O         0.0000268203       -0.0000093197        0.0002864595
O         0.0000878964        0.0002900216        0.0002665900
O         0.0000066019        0.0000289172       -0.0000537686
O         0.0002339349        0.0000208203        0.0006558142
O         0.0000134668        0.0002903710       -0.0000720336
O        -0.0000062874        0.0000270283       -0.0002872775
O         0.0002032922        0.0003006861       -0.0003213316
O         0.0002893399        0.0000945658       -0.0002685697
O         0.0000286583        0.0000047805        0.0000543176
O         0.0000108466        0.0000886070        0.0005936466
O         0.0002985331        0.0000139463       -0.0003916242
O         0.0000126835       -0.0001013994       -0.0005991569
O         0.0002995681       -0.0002253697       -0.0003062261
O        -0.0000999430        0.0002914816       -0.0002716051
O        -0.0002522000        0.0000200128       -0.0006444332
O         0.0002933464       -0.0000990970        0.0002715828
O         0.0000204870       -0.0002413797        0.0006433867
O        -0.0002196538        0.0003008322        0.0003069596
O        -0.0001072303        0.0000126671        0.0005978675
O         0.0005316082       -0.0000232455        0.0001129346
O        -0.0000148367        0.0000089604        0.0000259672
O        -0.0000212072       -0.0005574323        0.0002502799
O        -0.0000029764       -0.0002754660        0.0003557480
O        -0.0000124797        0.0000374609        0.0003005672
O         0.0005131407       -0.0000347264       -0.0003915710
O         0.0000094243       -0.0005405244       -0.0005371853
O         0.0000161495       -0.0002690777       -0.0000496246
O        -0.0002760109       -0.0000082124       -0.0003555037
O        -0.0005577679       -0.0000178802       -0.0002487848
O        -0.0005400291        0.0000172258        0.0005378205
O        -0.0002682316        0.0000133895        0.0000466449
O        -0.0000307547        0.0005127975        0.0003914241
O         0.0000343421       -0.0000123132       -0.0003004310
O        -0.0000196497        0.0005337862       -0.0001123490
O         0.0000073399       -0.0000168793       -0.0000251485
O         0.0004832083        0.0001834630       -0.0003405811
O        -0.0000146723       -0.0000130348       -0.0002862070
O        -0.0000026577       -0.0005399181        0.0005666785
O         0.0000896519       -0.0002716678       -0.0002741939
O        -0.0000044926        0.0002277894        0.0006597069
O         0.0005286981        0.0000478283       -0.0001243859
O         0.0001095876       -0.0005184558        0.0001234915
O         0.0000084048       -0.0002755004       -0.0003828782
O        -0.0002675299        0.0000164727       -0.0000595012
O        -0.0005319947        0.0002310893        0.0001655205
O         0.0002065614       -0.0002810965        0.0003284809
O         0.0000480213       -0.0005572984       -0.0002599248
O        -0.0005567366        0.0000393634        0.0002596060
O        -0.0002795679        0.0002108255       -0.0003290077
O         0.0000085420       -0.0002667569        0.0000604194
O         0.0002360702       -0.0005320692       -0.0001658096
O        -0.0005186362        0.0001040052       -0.0001235192
O        -0.0002737895        0.0000101335        0.0003824962
O         0.0000438217        0.0005249326        0.0001243022
O         0.0002328559       -0.0000022115       -0.0006608325
O        -0.0002734365        0.0000938899        0.0002741379
O        -0.0005402069       -0.0000076598       -0.0005669251
O         0.0001745330        0.0004855879        0.0003396338
O        -0.0000105009       -0.0000149088        0.0002863916
O        -0.0000109446        0.0000059378       -0.0000507450
O         0.0004622199        0.0000912525        0.0003166822
O         0.0000926121       -0.0000001970        0.0005946917
O         0.0000352532        0.0005202118       -0.0004204757
O         0.0005200244        0.0000341517        0.0004207578
O         0.0000009292        0.0000922071       -0.0005947448
O         0.0000046555       -0.0000101005        0.0000513469
O         0.0000849923        0.0004614176       -0.0003149399
O         0.0004679298       -0.0000969504       -0.0003189802
O        -0.0000072377       -0.0002485411       -0.0006447998
O        -0.0001248550       -0.0005190274       -0.0001278217
O        -0.0002230837       -0.0002801918       -0.0003132834
O         0.0000031489       -0.0001041730        0.0005993080
O         0.0004829292       -0.0001966425        0.0003229394
O        -0.0002518440       -0.0005321855        0.0001499820
O        -0.0000965604       -0.0002731240        0.0002794072
O        -0.0002829574       -0.0002290182        0.0003131254
O        -0.0005185705       -0.0001157956        0.0001271957
O        -0.0005313875       -0.0002474707       -0.0001508158
O        -0.0002718539       -0.0001010954       -0.0002803873
O        -0.0001900124        0.0004814425       -0.0003221709
O        -0.0001053893        0.0000053214       -0.0006007186
O        -0.0000929654        0.0004678783        0.0003204119
O        -0.0002475437       -0.0000090228        0.0006438281
O         0.0005503555       -0.0000186523        0.0002535743
O        -0.0005376579       -0.0000362196        0.0003811840
O        -0.0000237549       -0.0005507035        0.0001025729
O         0.0000061583        0.0005326032        0.0005403625
O        -0.0005504424       -0.0000212210       -0.0001026919
O         0.0005321840        0.0000130336       -0.0005393481
O        -0.0000337134       -0.0005387685       -0.0003820315
O        -0.0000215429        0.0005510517       -0.0002507784
O         0.0005236239        0.0002284461       -0.0001684718
O        -0.0005535611        0.0000474954        0.0001146585
O         0.0000374021       -0.0005338477        0.0004122974
O         0.0001090162        0.0005077796       -0.0001293901
O        -0.0005004253        0.0001828459        0.0003469520
O         0.0005514888        0.0000465070       -0.0002605972
O         0.0000925273       -0.0004813832        0.0003215416
O         0.0000010018        0.0005328301       -0.0005654708
O         0.0002333652        0.0005227319        0.0001682281
O         0.0000422169       -0.0005551701       -0.0001141414
O         0.0000527806        0.0005511838        0.0002631659
O         0.0001806910       -0.0004983126       -0.0003489090
O        -0.0004814482        0.0000925781       -0.0003226693
O         0.0005327144       -0.0000018829        0.0005660920
O         0.0005082431        0.0001030362        0.0001277898
O        -0.0005332837        0.0000459690       -0.0004111064
O         0.0005088579       -0.0001179566       -0.0001359900
O        -0.0005040232       -0.0002012724       -0.0003314479
O        -0.0000920757       -0.0004771534       -0.0003248788
O        -0.0002498109        0.0005238388       -0.0001527028
O        -0.0004760614       -0.0001024169        0.0003259673
O         0.0005237087       -0.0002423989        0.0001528348
O        -0.0001971504       -0.0005036139        0.0003307959
O        -0.0001230085        0.0005092798        0.0001350121
     192
 i =        3, E =     -5782.9397659354
Ti         0.0000404601        0.0000422788       -0.0000010172
Ti        -0.0000811421       -0.0000824543       -0.0000000142
Ti         0.0000334294       -0.0000721572        0.0005403766
Ti        -0.0000752086        0.0000341710       -0.0005415215
Ti         0.0000329439       -0.0001142191        0.0002452962
Ti        -0.0000746470       -0.0000244015        0.0005314382
Ti         0.0000771793       -0.0000826836       -0.0000282046
Ti        -0.0003824970        0.0000202717        0.0003482510
Ti        -0.0000863172       -0.0001248617       -0.0007758027
Ti         0.0000410021       -0.0000327245        0.0000086353
Ti        -0.0003824669       -0.0001051646       -0.0008931277
Ti         0.0000715168        0.0000342358        0.0005710846
Ti        -0.0001169912        0.0000327091       -0.0002431921
Ti        -0.0000263672       -0.0000738092       -0.0005298700
Ti        -0.0000336117        0.0000417078       -0.0000078056
Ti        -0.0001245815       -0.0000883184        0.0007773683
Ti        -0.0001060237       -0.0003847084        0.0008951917
Ti         0.0000346471        0.0000686502       -0.0005681016
Ti         0.0000201952       -0.0003836902       -0.0003466712
Ti        -0.0000824503        0.0000772711        0.0000297488
Ti         0.0000195129        0.0003975833        0.0003424067
Ti        -0.0000864828        0.0001017731        0.0007531256
Ti         0.0003953110       -0.0001040636        0.0008891464
Ti         0.0000949439        0.0000318423        0.0002210469
Ti        -0.0001050726        0.0003951269       -0.0008912709
Ti         0.0000330429        0.0000938393       -0.0002224406
Ti         0.0001025988       -0.0000878427       -0.0007529484
Ti         0.0004002669        0.0000203530       -0.0003459171
Ti        -0.0001246606       -0.0001260066       -0.0000007136
Ti        -0.0000343053       -0.0000359143       -0.0000010724
Ti         0.0000989469       -0.0003831548       -0.0009204155
Ti        -0.0003833895        0.0001002391        0.0009192901
Ti        -0.0000246489       -0.0001181963       -0.0002560495
Ti        -0.0001175162       -0.0000223587        0.0002551115
Ti        -0.0003976874       -0.0003993882       -0.0000014241
Ti         0.0000774698        0.0000769687       -0.0000008462
Ti         0.0000701641       -0.0000249391       -0.0005595371
Ti        -0.0003830887       -0.0001442829        0.0001486240
Ti        -0.0001241379        0.0000818912       -0.0008049411
Ti        -0.0000145255       -0.0003829625        0.0003553936
Ti        -0.0003847988       -0.0000144734       -0.0003565498
Ti         0.0000810015       -0.0001242502        0.0008032049
Ti        -0.0000255619        0.0000713127        0.0005585587
Ti        -0.0001429450       -0.0003850180       -0.0001510933
Ti        -0.0001415007        0.0003965706        0.0001452669
Ti        -0.0000256232        0.0000933058        0.0002306827
Ti         0.0004096381       -0.0003957884       -0.0000062650
Ti         0.0001030220        0.0000827228        0.0007824913
Ti        -0.0000150543        0.0003977420       -0.0003530170
Ti        -0.0001264285        0.0001065491        0.0000246761
Ti         0.0001249188       -0.0003839635        0.0001761720
Ti         0.0003957961        0.0000969692       -0.0009146044
Ti         0.0000822938        0.0001043343       -0.0007814753
Ti        -0.0003961624        0.0004106451        0.0000090851
Ti        -0.0003870218        0.0001239335       -0.0001730272
Ti         0.0000979495        0.0003967324        0.0009167325
Ti         0.0001055746       -0.0001250288       -0.0000222697
Ti         0.0003973724       -0.0000158781        0.0003526649
Ti         0.0003967813       -0.0001415418       -0.0001438295
Ti         0.0000946064       -0.0000278717       -0.0002294897
Ti         0.0004111206        0.0004106732       -0.0000011750
Ti         0.0001034511        0.0001045473       -0.0000005678
Ti         0.0003938509        0.0001242245        0.0001673175
Ti         0.0001244049        0.0003961014       -0.0001687236
O        -0.0000934261       -0.0001918902       -0.0001115490
O         0.0000193096        0.0000311894        0.0003423048
O        -0.0002002374        0.0000196845       -0.0002002293
O         0.0000586104       -0.0000946850        0.0004148368
O         0.0000194326       -0.0002013272        0.0001994640
O        -0.0000944698        0.0000573566       -0.0004153414
O         0.0000328955        0.0000185473       -0.0003422520
O        -0.0001907327       -0.0000934123        0.0001120621
O        -0.0000866676        0.0003051171       -0.0004428048
O         0.0000201338        0.0002267776       -0.0002008686
O        -0.0000214074        0.0000170763        0.0003578299
O         0.0002611011       -0.0000835787       -0.0003969420
O         0.0000362804        0.0002869142        0.0005476585
O        -0.0000929023        0.0002162159        0.0001139312
O         0.0002482233        0.0000441409        0.0005161642
O        -0.0000463379       -0.0000952258       -0.0004312812
O         0.0003085229       -0.0000870759        0.0004429100
O         0.0002267229        0.0000201611        0.0002000832
O         0.0002183972       -0.0000926902       -0.0001137106
O         0.0002851709        0.0000354595       -0.0005474913
O         0.0000451334        0.0002534486       -0.0005174679
O        -0.0000957997       -0.0000482205        0.0004312518