     192
 i =        1, E =     -5782.9389180541
Ti        -0.0006937932       -0.0007006010        0.0000034993
Ti         1.8927400800        1.8927554171        4.8075098617
Ti        -0.0006616036        1.8927407908        2.4026318536
Ti         1.8927533057       -0.0006627739        7.2123785267
Ti        -0.0006400546        3.7811910663        0.0017015788
Ti         1.8927725583       13.2394805402        4.8063724033
Ti        11.3461016946        1.8927394923        2.4037184619
Ti         5.6738693992       -0.0006286236        7.2133682406
Ti         1.8927060143        3.7812393274        7.2106842033
Ti        -0.0006874572       13.2394774495        2.4037767359
Ti         5.6738836311        1.8927211049        4.8065229091
Ti        11.3460639856       -0.0006738391       -0.0010987720
Ti         3.7811955817       -0.0006393877       -0.0016946743
Ti        13.2394669739        1.8927639457        4.8086377820
Ti        13.2394888503       -0.0006908394        7.2112554708
Ti         3.7812302158        1.8927259758        2.4043326388
Ti         1.8927128914        5.6738831611        4.8084909410
Ti        -0.0006747748       11.3460782134        0.0010874551
Ti        -0.0006322257        5.6738652582        2.4016374725
Ti         1.8927472248       11.3460970772        7.2112952128
Ti        -0.0006291424        7.5650714364        0.0020992781
Ti         1.8927459056        9.4576896559        4.8080548726
Ti         7.5650765071        1.8927071490        2.4047298708
Ti         9.4577008873       -0.0006425363        7.2129418798
Ti         1.8927091719        7.5650738738        7.2102997256
Ti        -0.0006343986        9.4576941354        2.4020807454
Ti         9.4576863439        1.8927389296        4.8069662362
Ti         7.5650568679       -0.0006275829       -0.0020931423
Ti         3.7812277643        3.7812281188        0.0000016680
Ti        13.2394914196       13.2395048735        4.8075121678
Ti        11.3461453181        5.6738764739        2.4027420065
Ti         5.6738804508       11.3461318908        7.2122798695
Ti        13.2394394733        3.7812203030        7.2095652747
Ti         3.7812133979       13.2394289758        2.4054651223
Ti         5.6738856532        5.6738944036        4.8075133901
Ti        11.3460897817       11.3460966902        0.0000016287
Ti        11.3460848657       13.2394544646        2.4048656597
Ti         5.6738650161        3.7812337432        7.2116897153
Ti         3.7812261343       11.3461300181       -0.0006007245
Ti        13.2394376217        5.6738809291        4.8096356540
Ti         5.6738932885       13.2394448242        4.8053959887
Ti        11.3461187092        3.7812186600        0.0006027888
Ti        13.2394634784       11.3460700367        7.2101617015
Ti         3.7812305025        5.6738736343        2.4033468084
Ti         3.7812303597        7.5650772715        0.0004026962
Ti        13.2394603631        9.4577128357        4.8091947339
Ti         7.5650794936        5.6738700972        2.4037359048
Ti         9.4576811799       11.3461156003        7.2118387604
Ti        13.2394315305        7.5650698545        7.2091697515
Ti         3.7812385369        9.4576655354        2.4037816007
Ti         9.4576894012        5.6738987558        4.8079521652
Ti         7.5650710310       11.3461416428       -0.0009979199
Ti        11.3461300984        9.4576766730        2.4031775180
Ti         5.6738717343        7.5650724685        7.2112719209
Ti         5.6739057807        9.4576922833        4.8070581736
Ti        11.3461347897        7.5650690742        0.0009887836
Ti         9.4576716923        3.7812289504        7.2112356993
Ti         7.5650724930       13.2394271164        2.4058560820
Ti         7.5650691111        3.7812222864       -0.0004106982
Ti         9.4577106226       13.2394665759        4.8058267139
Ti         7.5650690963        7.5650730979        0.0000027524
Ti         9.4577001470        9.4577001360        4.8075107397
Ti         7.5650702004        9.4576785326        2.4041811928
Ti         9.4576739701        7.5650671025        7.2108448383
O         0.0012985267        0.0026926442        1.9934952798
O         1.8845762000        1.8897984795        6.7991995666
O         0.0026680642        1.8843601605        4.3964301766
O         1.8897245603        0.0012997174        9.2037071267
O         1.8843538499        0.0026858612        5.2185877491
O         0.0012967573        1.8897253429        0.4113038600
O         1.8897847153        1.8845547628        2.8158287315
O         0.0026992397        0.0013046266        7.6215291854
O         0.0012852691        3.7816884063        1.9934475766
O         1.8843704679       13.2360818083        6.8001731330
O        11.3490383606        1.8845243277        4.3954083020
O         5.6727841224        0.0012844176        9.2050722635
O         1.8847683608        3.7817083533        5.2184932024
O         0.0013239137       13.2360527759        0.4102733928
O         5.6728135337        1.8848478314        2.8143514273
O        11.3490923038        0.0012860960        7.6225917313
O         3.7816832352        0.0012847348        7.6215780604
O        13.2360877413        1.8843735230        2.8148497984
O        13.2360449552        0.0013215979        9.2047579770
O         3.7817138644        1.8847656230        4.3965297456
O         1.8848849864        5.6728011258        6.8006697077
O         0.0012867776       11.3490879648        1.9924218806
O         0.0012961353        5.6728033487        0.4099443901
O         1.8845115594       11.3490483608        5.2196044406
O         0.0012819663        7.5661835754        1.9937999717
O         1.8847636810        9.4571995098        6.8002559606
O         7.5661864903        1.8848453197        4.3969010420
O         9.4572105227        0.0012895558        9.2046962182
O         1.8848259306        7.5661797586        5.2181263039
O         0.0012851633        9.4572014984        0.4103289290
O         9.4571921507        1.8847611288        2.8147625611
O         7.5662011020        0.0012813885        7.6212317874
O         3.7751590239        0.0026479187        1.9921962361
O        13.2372079486        1.8897285408        6.7999503405
O         0.0026380290        5.6706021113        4.3956429411
O         1.8897787103       11.3541373712        9.2029809199
O        13.2371444151        0.0026990925        5.2177628952
O         3.7752799357        1.8898445206        0.4124794376
O         1.8898598184        5.6706517384        2.8164943509
O         0.0026667212       11.3543471234        7.6223110768
O        11.3541567053        1.8897850432        0.4120384694
O         5.6705921119        0.0026424284        5.2193618337
O         5.6706510138        1.8898497631        6.7985178206
O        11.3543473428        0.0026635439        1.9927141306
O         1.8898405635        3.7752756454        9.2025376777
O         0.0027010780       13.2371351556        4.3972650474
O         0.0026398034        3.7751348756        7.6228307430
O         1.8897270885       13.2372306692        2.8150612753
O         3.7753630378        3.7817237766        1.9924902372
O        13.2371809576       13.2360570442        6.8009855256
O        11.3489690160        5.6706104467        4.3947325165
O         5.6728059682       11.3538333304        9.2044391824
O        13.2372059030        3.7816963275        5.2178221841
O         3.7751667582       13.2361148638        0.4115739685
O         5.6728125758        5.6706541937        2.8147463907
O        11.3490468873       11.3541787423        7.6233355799
O        11.3543496002       13.2360773646        0.4110629754
O         5.6706247598        3.7817393270        5.2189883020
O         3.7817124206       11.3539278892        7.6222305986
O        13.2361216660        5.6706266647        2.8156287112
O         5.6706308715       13.2361308176        6.7994010069
O        11.3539138823        3.7817011046        1.9927943253
O        13.2360855778       11.3543367402        9.2039600780
O         3.7817239443        5.6706343561        4.3960506960
O         5.6706559446        5.6728219526        6.8002818117
O        11.3541453284       11.3490420431        1.9916860565
O        13.2361158780        3.7751857793        9.2034522635
O         3.7816977006       13.2371766027        4.3972046040
O        11.3538487971        5.6727956792        0.4105853078
O         5.6705962817       11.3489805679        5.2202886706
O         3.7817292380        3.7753459203        7.6225340046
O        13.2360597497       13.2371882544        2.8140260084
O        13.2371790294       11.3490959880        5.2188370314
O         3.7754155424        5.6728075516        0.4108174795
O         5.6728000058       13.2372556647        2.8137118022
O        11.3489893225        3.7752344287        7.6237744228
O         3.7752354372       11.3489834866        1.9912490649
O        13.2372331272        5.6728022222        6.8013143738
O        11.3490920394       13.2371711497        4.3961885439
O         5.6728208087        3.7754200059        9.2042089244
O         3.7753837607        7.5661657605        1.9929167538
O        13.2372394497        9.4572071904        6.8009332533
O         7.5661930280        5.6706196029        4.3965064352
O         9.4571927551       11.3539257624        9.2040284157
O        13.2372160265        7.5661958199        5.2174825002
O         3.7753579222        9.4571872540        0.4113001753
O         9.4571869413        5.6706558547        2.8152567872
O         7.5661765020       11.3538532346        7.6218610308
O        11.3539438506        9.4572048588        0.4109952678
O         5.6706154508        7.5661741977        5.2185106167
O         5.6706561082        9.4571730260        6.7997585856
O        11.3538328999        7.5661861779        1.9931584042
O         9.4571657280        3.7753740243        9.2037192913
O         7.5662002073       13.2371897647        4.3975467829
O         7.5661613482        3.7753871455        7.6220861914
O         9.4572096556       13.2372533412        2.8140900264
O         7.5686169584        0.0026296641        1.9919044413
O         9.4636865856        1.8898423836        6.7987998804
O         0.0026654956        9.4637786072        4.3959568961
O         1.8898666306        7.5685765036        9.2022880424
O         9.4637734320        0.0026588095        5.2190644789
O         7.5685831228        1.8898519258        0.4127392416
O         1.8898430836        9.4637013950        2.8162252084
O         0.0026375387        7.5686048980        7.6231092112
O         7.5685567184        3.7817294032        1.9922935626
O         9.4637915255       13.2361014688        6.7996959479
O        11.3489964593        9.4636666666        4.3950076148
O         5.6728083471        7.5685788391        9.2040391405
O         9.4635694428        3.7817317190        5.2187749431
O         7.5685916544       13.2361266578        0.4118481766
O         5.6727997599        9.4635326868        2.8145692525
O        11.3489599271        7.5685823370        7.6240177503
O         3.7817219589        7.5685637852        7.6227207093
O        13.2361205528        9.4638004359        2.8153229210
O        13.2361129252        7.5685989305        9.2031669867
O         3.7817400158        9.4635590050        4.3962494662
O         9.4635290580        5.6728020361        6.8004494582
O         7.5685906812       11.3489648268        1.9909925374
O         7.5685696715        5.6728192932        0.4109792352
O         9.4636608845       11.3489864947        5.2200104074
O         7.5685645868        7.5661756028        1.9927778472
O         9.4635820661        9.4571820079        6.7999763521
O         7.5661695491        9.4634992862        4.3966747737
O         9.4571836763        7.5685729140        9.2035368620
O         9.4634919425        7.5661975263        5.2183451983
O         7.5685709177        9.4571731978        0.4114932797
O         9.4571783864        9.4635758997        2.8150465302
O         7.5661829388        7.5685600095        7.6222517888
     192
 i =        2, E =     -5782.9394627983
Ti         0.0006113849        0.0005983130        0.0000025041
Ti         1.8905229406        1.8905352007        4.8075097315
Ti         0.0006106449        1.8904317575        2.4016055584
Ti         1.8904458522        0.0006121814        7.2134139181
Ti         0.0006185445        3.7786158294        0.0027763292
Ti         1.8904656382       13.2380227432        4.8053341511
Ti        11.3482376661        1.8905128770        2.4036929561
Ti         5.6728820308        0.0006268784        7.2153108970
Ti         1.8906127409        3.7786905353        7.2106223197
Ti         0.0006159975       13.2379930981        2.4037857262
Ti         5.6729167111        1.8906744920        4.8056196072
Ti        11.3482885069        0.0005952723       -0.0021036866
Ti         3.7786265796        0.0006203185       -0.0027716471
Ti        13.2380191152        1.8904629836        4.8096796981
Ti        13.2380038366        0.0006147513        7.2112440220
Ti         3.7786900221        1.8906236206        2.4043945298
Ti         1.8906712063        5.6729257882        4.8093949914
Ti         0.0005973217       11.3482970160        0.0020899214
Ti         0.0006229411        5.6728825020        2.3996958069
Ti         1.8905198144       11.3482384254        7.2113176630
Ti         0.0006229004        7.5661911541        0.0040267860
Ti         1.8906392133        9.4602644338        4.8080700458
Ti         7.5661873779        1.8906609638        2.4056151142
Ti         9.4602919580        0.0006256488        7.2139753557
Ti         1.8906635994        7.5661820523        7.2094111468
Ti         0.0006299161        9.4602919745        2.4010531161
Ti         9.4602609354        1.8906380431        4.8069483948
Ti         7.5661792704        0.0006225265       -0.0040160100
Ti         3.7787478141        3.7787508889        0.0000031816
Ti        13.2380176462       13.2380285144        4.8075206164
Ti        11.3481088325        5.6729048320        2.4018020063
Ti         5.6729096839       11.3480969522        7.2132200209
Ti        13.2380038524        3.7786458164        7.2084774536
Ti         3.7786467508       13.2379982742        2.4065546017
Ti         5.6729688147        5.6729774749        4.8075126067
Ti        11.3482285499       11.3482361457        0.0000033929
Ti        11.3483102294       13.2380095521        2.4058751919
Ti         5.6729317375        3.7787790624        7.2124479245
Ti         3.7786740346       11.3481375879       -0.0006902519
Ti        13.2380213013        5.6729006196        4.8115898199
Ti         5.6729084424       13.2380225092        4.8034393061
Ti        11.3481301885        3.7786671711        0.0006950934
Ti        13.2380150144       11.3482963336        7.2091485878
Ti         3.7787742738        5.6729400325        2.4025798915
Ti         3.7787677130        7.5661409458        0.0011488647
Ti        13.2380276919        9.4603135108        4.8102362436
Ti         7.5661350931        5.6729499453        2.4037180327
Ti         9.4602547521       11.3481415167        7.2118804707
Ti        13.2380145876        7.5661971616        7.2072273058
Ti         3.7787639576        9.4601750799        2.4038211709
Ti         9.4601764451        5.6729635865        4.8087541911
Ti         7.5661766625       11.3481031686       -0.0019201620
Ti        11.3481496928        9.4602477955        2.4031277565
Ti         5.6729532035        7.5661295409        7.2112882988
Ti         5.6729694835        9.4601793557        4.8062500898
Ti        11.3480966809        7.5661738151        0.0019104193
Ti         9.4601711629        3.7787532036        7.2111901000
Ti         7.5662035886       13.2380119912        2.4077944814
Ti         7.5661365892        3.7787652444       -0.0011547504
Ti         9.4603123240       13.2380354634        4.8047845900
Ti         7.5661200017        7.5661264821        0.0000034369
Ti         9.4602102543        9.4602057005        4.8075115825
Ti         7.5661534272        9.4601615327        2.4049665787
Ti         9.4601585712        7.5661460620        7.2100539612
O         0.0010808148        0.0017702534        1.9938329488
O         1.8840916643        1.8890943453        6.7988874164
O         0.0018144931        1.8839885714        4.3968615742
O         1.8890291514        0.0011376580        9.2033559269
O         1.8839885867        0.0018227483        5.2181641196
O         0.0011348111        1.8890274243        0.4116659217
O         1.8890834848        1.8840901581        2.8161358085
O         0.0017701500        0.0010838630        7.6211875513
O         0.0011650088        3.7787797517        1.9943435467
O         1.8840052884       13.2367749111        6.8005899591
O        11.3496327429        1.8840795237        4.3950761182
O         5.6715809621        0.0011974320        9.2063792465
O         1.8840931729        3.7788549307        5.2175548797
O         0.0010893918       13.2368100166        0.4099433764
O         5.6716257788        1.8841545123        2.8130222739
O        11.3496769137        0.0011236953        7.6229789296
O         3.7787699178        0.0011635026        7.6206760493
O        13.2367726857        1.8840042331        2.8144348291
O        13.2368081018        0.0010875254        9.2050779165
O         3.7788608095        1.8841050028        4.3974613468
O         1.8841611782        5.6716000770        6.8020039208
O         0.0011268863       11.3496801519        1.9920355613
O         0.0011981358        5.6716001450        0.4086404094
O         1.8840814352       11.3496338672        5.2199378853
O         0.0011897407        7.5675231384        1.9950824592
O         1.8841101883        9.4600852092        6.8011499655
O         7.5675114829        1.8841505514        4.3982085532
O         9.4601575785        0.0011647078        9.2055529418
O         1.8841401041        7.5675068384        5.2168191570
O         0.0011657082        9.4601332871        0.4094762134
O         9.4600724335        1.8841047802        2.8138694468
O         7.5675386998        0.0011902277        7.6199507791
O         3.7680253925        0.0019007044        1.9928033914
O        13.2372970923        1.8890245876        6.7995835849
O         0.0019414725        5.6654530034        4.3958198168
O         1.8890747607       11.3544109125        9.2026714005
O        13.2373280440        0.0017714398        5.2174285953
O         3.7682881227        1.8892144452        0.4125796513
O         1.8892690039        5.6655846418        2.8169777361
O         0.0018089977       11.3544974829        7.6218813130
O        11.3544147222        1.8890823602        0.4123421250
O         5.6654433481        0.0019368780        5.2191879756
O         5.6655895482        1.8892535659        6.7980354587
O        11.3544932612        0.0018116222        1.9931414092
O         1.8892061006        3.7682901714        9.2024396503
O         0.0017738259       13.2373269970        4.3975882609
O         0.0018946272        3.7680116527        7.6222120567
O         1.8890274398       13.2373088922        2.8154309633
O         3.7684942138        3.7789830211        1.9937047090
O        13.2373402911       13.2368220954        6.8013087188
O        11.3494634445        5.6655194344        4.3942141774
O         5.6716085053       11.3543590998        9.2057835249
O        13.2372508112        3.7787893391        5.2169284180
O         3.7680398510       13.2366937030        0.4109753758
O         5.6716694333        5.6656269394        2.8132893769
O        11.3496442306       11.3544172340        7.6236630732
O        11.3544918744       13.2367648585        0.4106376264
O         5.6655465706        3.7790628689        5.2179836829
O         3.7788509226       11.3544112307        7.6212880662
O        13.2366579502        5.6655092762        2.8154647706
O         5.6655202888       13.2366742339        6.7995573354
O        11.3544019977        3.7788373435        1.9937379626
O        13.2367782944       11.3544872103        9.2043812939
O         3.7790477012        5.6655642335        4.3970438171
O         5.6656283758        5.6716869221        6.8017412260
O        11.3544066783       11.3496427841        1.9913632650
O        13.2366998599        3.7680579916        9.2040480884
O         3.7787776405       13.2372422516        4.3980963345
O        11.3543685886        5.6715963434        0.4092419682
O         5.6654927233       11.3494702456        5.2208105340
O         3.7790041258        3.7684809505        7.6213277022
O        13.2368174566       13.2373408737        2.8137125806
O        13.2372817089       11.3496796807        5.2192308945
O         3.7686542955        5.6716463007        0.4092236928
O         5.6716014281       13.2372459849        2.8124051830
O        11.3495182117        3.7682444366        7.6239075072
O         3.7682490917       11.3495248089        1.9911197656
O        13.2372395632        5.6715963401        6.8026206518
O        11.3496834778       13.2372761779        4.3957923671
O         5.6716673183        3.7686565409        9.2057972689
O         3.7686185924        7.5674556231        1.9944862831
O        13.2372664595        9.4601534673        6.8017851425
O         7.5674648183        5.6655568917        4.3979384810
O         9.4600766668       11.3544071393        9.2049260993
O        13.2372282042        7.5675318024        5.2161998442
O         3.7684920612        9.4599403598        0.4101352763
O         9.4598837244        5.6656095278        2.8143049307
O         7.5674996756       11.3543699382        7.6205413838
O        11.3544203007        9.4600917001        0.4100919659
O         5.6655518068        7.5674378070        5.2170788084
O         5.6656146002        9.4598716512        6.8007084263
O        11.3543649121        7.5675133013        1.9944769808
O         9.4599209999        3.7685026256        9.2048806244
O         7.5675348245       13.2372161767        4.3988280870
O         7.5674430856        3.7686179134        7.6205226422
O         9.4601534610       13.2372749751        2.8132418592
O         7.5742100377        0.0019337574        1.9920886521
O         9.4704450577        1.8892111575        6.7987081772
O         0.0019044349        9.4706675290        4.3965819298
O         1.8892694850        7.5741051176        9.2018129963
O         9.4706662525        0.0018996808        5.2184408918
O         7.5741132408        1.8892565965        0.4132050811
O         1.8892103526        9.4704514675        2.8163146321
O         0.0019410931        7.5741884771        7.6229266294
O         7.5740541357        3.7790559717        1.9933018716
O         9.4706862251       13.2366981677        6.8003075650
O        11.3495237840        9.4704275137        4.3948868596
O         5.6716620089        7.5740721771        9.2055013848
O         9.4702080490        3.7789827065        5.2175613502
O         7.5741699593       13.2366588025        0.4116777107
O         5.6716446733        9.4700789234        2.8129713243
O        11.3494574608        7.5741113962        7.6245290345
O         3.7790470581        7.5740689108        7.6217117171
O        13.2367079469        9.4706937190        2.8147079706
O        13.2366487518        7.5741824647        9.2033310630
O         3.7789869589        9.4701931233        4.3974591752
O         9.4700770052        5.6716479749        6.8020412835
O         7.5741238931       11.3494644903        1.9904837066
O         7.5740547867        5.6716834200        0.4095192052
O         9.4704246996       11.3495074492        5.2201264724
O         7.5740394625        7.5674463705        1.9942096356
O         9.4702329474        9.4599599002        6.8011460290
O         7.5674416710        9.4700540380        4.3982414828
O         9.4598824033        7.5740835427        9.2044883013
O         9.4700456767        7.5674799133        5.2167761001
O         7.5740775324        9.4598664388        0.4105372656
O         9.4599482936        9.4702302790        2.8138838461
O         7.5674584879        7.5740360454        7.6208215942
     192
 i =        3, E =     -5782.9397659354
Ti         0.0006660235        0.0006544870        0.0000011651
Ti         1.8889904716        1.8890003722        4.8075092064
Ti         0.0006975738        1.8889122743        2.4020049231
Ti         1.8889287952        0.0006944822        7.2130139823
Ti         0.0007409050        3.7758542504        0.0028638601
Ti         1.8889467796       13.2378571306        4.8057321612
Ti        11.3496986492        1.8889798310        2.4036983844
Ti         5.6713253345        0.0007859115        7.2159162793
Ti         1.8890730283        3.7759413872        7.2101077779
Ti         0.0006715719       13.2378596398        2.4037863757
Ti         5.6713609499        1.8891850168        4.8045784012
Ti        11.3497357913        0.0006804769       -0.0017091137
Ti         3.7758635502        0.0007420723       -0.0028574460
Ti        13.2378554951        1.8889443304        4.8092842985
Ti        13.2378739885        0.0006721047        7.2112440562
Ti         3.7759449702        1.8890839651        2.4049097939
Ti         1.8891813122        5.6713710741        4.8104353002
Ti         0.0006819000       11.3497454114        0.0016950081
Ti         0.0007839210        5.6713255166        2.3990922950
Ti         1.8889879712       11.3496966963        7.2113159810
Ti         0.0007844527        7.5678808250        0.0045971630
Ti         1.8890976786        9.4629916885        4.8085563033
Ti         7.5678741101        1.8891711988        2.4066216569
Ti         9.4630364057        0.0007433850        7.2140314947
Ti         1.8891716517        7.5678668812        7.2084027329
Ti         0.0007450553        9.4630370190        2.4009959472
Ti         9.4629879989        1.8891002441        4.8064615261
Ti         7.5678696516        0.0007842018       -0.0045864972
Ti         3.7760493737        3.7760523099        0.0000008309
Ti        13.2378885970       13.2378978329        4.8075209711
Ti        11.3495279087        5.6713528077        2.4007650047
Ti         5.6713565152       11.3495149743        7.2142546357
Ti        13.2377995327        3.7758809808        7.2083895595
Ti         3.7758829809       13.2377955618        2.4066390244
Ti         5.6714398682        5.6714472047        4.8075090973
Ti        11.3496873093       11.3496950499        0.0000018817
Ti        11.3497557181       13.2378467834        2.4054813895
Ti         5.6713789973        3.7761351691        7.2129353107
Ti         3.7759254325       11.3496054233       -0.0012007910
Ti        13.2377821954        5.6713399920        4.8121907260
Ti         5.6713468530       13.2377824183        4.8028350397
Ti        11.3495991489        3.7759209140        0.0012026941
Ti        13.2378497883       11.3497412363        7.2095436886
Ti         3.7761291189        5.6713868406        2.4020895305
Ti         3.7761225329        7.5678253789        0.0016115012
Ti        13.2378258497        9.4630592965        4.8102930546
Ti         7.5677896685        5.6714266472        2.4036919967
Ti         9.4629810168       11.3496070487        7.2123623101
Ti        13.2377760984        7.5678880139        7.2066563088
Ti         3.7760591154        9.4628520837        2.4038505856
Ti         9.4627957338        5.6714052034        4.8092764625
Ti         7.5678584737       11.3495264040       -0.0029233642
Ti        11.3496146982        9.4629743115        2.4026465789
Ti         5.6714271885        7.5677851604        7.2113173235
Ti         5.6714075733        9.4628004177        4.8057292170
Ti        11.3495204688        7.5678557071        0.0029130902
Ti         9.4628489708        3.7760527222        7.2111606457
Ti         7.5678955202       13.2377723452        2.4083656931
Ti         7.5678221564        3.7761235975       -0.0016160628
Ti         9.4630568549       13.2378378822        4.8047267671
Ti         7.5677755736        7.5677838791        0.0000011709
Ti         9.4628887676        9.4628868394        4.8075100059
Ti         7.5678415896        9.4627826460        2.4054604070
Ti         9.4627817183        7.5678330216        7.2095594262
O         0.0013966702        0.0016995000        1.9933963965
O         1.8845787762        1.8876922967        6.7992575997
O         0.0017126602        1.8844542528        4.3977025469
O         1.8876224067        0.0014591421        9.2024949757
O         1.8844558836        0.0017152705        5.2173216690
O         0.0014576855        1.8876242219        0.4125285629
O         1.8876889871        1.8845807186        2.8157623724
O         0.0017007727        0.0013962291        7.6216228204
O         0.0014616795        3.7767969041        1.9930074940
O         1.8844522044       13.2368059276        6.8014593900
O        11.3509703898        1.8845813584        4.3955174877
O         5.6709169768        0.0014507168        9.2060971672
O         1.8845864013        3.7768438987        5.2176239322
O         0.0013937439       13.2368159424        0.4103516230
O         5.6709595726        1.8845776913        2.8120615707
O        11.3510317164        0.0014586794        7.6237754116
O         3.7767914590        0.0014628888        7.6220084526
O        13.2368070720        1.8844518248        2.8135630728
O        13.2368153085        0.0013929516        9.2046651458
O         3.7768496791        1.8845903320        4.3973905882
O         1.8845765978        5.6709335772        6.8029619718
O         0.0014611903       11.3510339460        1.9912408716