#     Step Nr.          Time[fs]        Kin.[a.u.]          Temp[K]            Pot.[a.u.]        Cons Qty[a.u.]        UsedTime[s]
         0            0.000000         0.022326048       100.000000000     -1445.583367172     -1445.561041124         0.000000000
         1            0.500000         0.022276408        99.777659325     -1445.583317620     -1445.561041212        28.741197886
         2            1.000000         0.022123656        99.093468824     -1445.583165125     -1445.561041470         1.618444643
         3            1.500000         0.021871881        97.965752072     -1445.582913423     -1445.561041542         1.335164337
         4            2.000000         0.021527493        96.423214491     -1445.582568537     -1445.561041043         1.349783150
         5            2.500000         0.021098658        94.502427779     -1445.582138307     -1445.561039649         1.355665708
         6            3.000000         0.020594238        92.243094667     -1445.581632041     -1445.561037804         1.642623275
         7            3.500000         0.022326048       100.000000000     -1445.581059923     -1445.558733875         1.355681960
         8            4.000000         0.021661743        97.024530586     -1445.580394950     -1445.558733206         1.918197044
         9            4.500000         0.020945940        93.818393641     -1445.579678250     -1445.558732311         1.960404934
        10            5.000000         0.020191389        90.438705493     -1445.578921817     -1445.558730428         1.636468492
        11            5.500000         0.022326048       100.000000000     -1445.578137660     -1445.555811611         1.630940724
        12            6.000000         0.021464746        96.142164656     -1445.577275627     -1445.555810881         1.948437187
        13            6.500000         0.020590253        92.225247971     -1445.576400973     -1445.555810719         1.911906441
        14            7.000000         0.022326048       100.000000000     -1445.575525108     -1445.553199060         1.644215644
        15            7.500000         0.021401787        95.860166650     -1445.574599789     -1445.553198002         1.645680822
        16            8.000000         0.020490393        91.777966616     -1445.573688333     -1445.553197940         1.637664431
        17            8.500000         0.022326048       100.000000000     -1445.572800353     -1445.550474305         1.908891674
        18            9.000000         0.021408675        95.891016976     -1445.571883121     -1445.550474447         1.631085553
        19            9.500000         0.020526028        91.937578962     -1445.571000763     -1445.550474735         1.964114125
        20           10.000000         0.022326048       100.000000000     -1445.570160284     -1445.547834236         1.636331118
        21           10.500000         0.021478661        96.204490028     -1445.569312283     -1445.547833623         1.630585733
        22           11.000000         0.020678649        92.621178841     -1445.568512761     -1445.547834112         1.640755262
        23           11.500000         0.022326048       100.000000000     -1445.567765915     -1445.545439867         1.656793604
        24           12.000000         0.021591328        96.709133121     -1445.567030800     -1445.545439472         1.632745254
        25           12.500000         0.020909576        93.655515985     -1445.566349437     -1445.545439862         1.637703065
        26           13.000000         0.020283521        90.851373587     -1445.565723030     -1445.545439509         1.638527881
        27           13.500000         0.022326048       100.000000000     -1445.565151725     -1445.542825676         1.632885723
        28           14.000000         0.021771785        97.517412631     -1445.564597090     -1445.542825305         1.919900459
        29           14.500000         0.021263921        95.242656789     -1445.564089558     -1445.542825636         1.688495687
        30           15.000000         0.020801571        93.171755924     -1445.563626731     -1445.542825160         1.634269443
        31           15.500000         0.020381528        91.290353136     -1445.563205849     -1445.542824320         1.643555366
        32           16.000000         0.022326048       100.000000000     -1445.562823884     -1445.540497836         1.635348880
        33           16.500000         0.021955787        98.341574252     -1445.562453963     -1445.540498176         1.937534828
        34           17.000000         0.021611982        96.801646822     -1445.562110010     -1445.540498028         1.646450892
        35           17.500000         0.021291249        95.365059072     -1445.561788606     -1445.540497357         1.915385670
        36           18.000000         0.020988516        94.009096871     -1445.561486323     -1445.540497806         1.645611838
        37           18.500000         0.020701350        92.722856182     -1445.561199855     -1445.540498506         1.919315143
        38           19.000000         0.020427540        91.496441649     -1445.560926106     -1445.540498566         1.922972935
        39           19.500000         0.020163352        90.313125015     -1445.560662205     -1445.540498853         1.683022265
        40           20.000000         0.022326048       100.000000000     -1445.560405604     -1445.538079555         1.642995549
        41           20.500000         0.022054474        98.783599924     -1445.560134985     -1445.538080510         1.917136044
        42           21.000000         0.021779142        97.550368796     -1445.559859558     -1445.538080415         1.631786971
        43           21.500000         0.021499901        96.299624518     -1445.559578632     -1445.538078732         1.645663999
        44           22.000000         0.021214976        95.023424433     -1445.559292389     -1445.538077413         1.634163761
        45           22.500000         0.020924039        93.720297185     -1445.559001633     -1445.538077595         1.641637880
        46           23.000000         0.020629414        92.400651978     -1445.558708078     -1445.538078664         1.643930094
        47           23.500000         0.020334877        91.081399844     -1445.558414139     -1445.538079262         1.636726728
        48           24.000000         0.022326048       100.000000000     -1445.558123013     -1445.535796964         2.557831551
        49           24.500000         0.022021801        98.637254533     -1445.557818493     -1445.535796692         1.981866882
        50           25.000000         0.021720575        97.288040594     -1445.557517108     -1445.535796533         1.664257803
        51           25.500000         0.021428882        95.981525798     -1445.557224489     -1445.535795607         1.640625274
        52           26.000000         0.021152020        94.741443659     -1445.556946620     -1445.535794600         1.638778822
        53           26.500000         0.020895552        93.592704684     -1445.556689718     -1445.535794165         1.643816668
        54           27.000000         0.020665756        92.563430193     -1445.556460044     -1445.535794288         1.640003908
        55           27.500000         0.020469017        91.682222137     -1445.556263594     -1445.535794577         1.640485844
        56           28.000000         0.020311286        90.975731276     -1445.556105995     -1445.535794709         1.641865436
        57           28.500000         0.020197700        90.466970930     -1445.555992231     -1445.535794531         1.640376926
        58           29.000000         0.020132385        90.174420336     -1445.555926465     -1445.535794081         1.665217217
        59           29.500000         0.020118285        90.111267037     -1445.555911999     -1445.535793714         1.677969442
        60           30.000000         0.020157180        90.285482799     -1445.555950899     -1445.535793718         1.648146081
        61           30.500000         0.020249870        90.700645452     -1445.556044112     -1445.535794242         1.638306876
        62           31.000000         0.020396214        91.356133661     -1445.556191297     -1445.535795083         1.364721067
        63           31.500000         0.020595031        92.246648443     -1445.556390856     -1445.535795825         1.641139762
        64           32.000000         0.020844079        93.362150830     -1445.556639893     -1445.535795814         1.076341959
        65           32.500000         0.021139059        94.683390468     -1445.556934311     -1445.535795252         1.657313714
        66           33.000000         0.021473735        96.182425417     -1445.557268937     -1445.535795203         1.643776300
        67           33.500000         0.021841358        97.829037064     -1445.557637488     -1445.535796130         1.644004700
        68           34.000000         0.022235383        99.593903985     -1445.558033025     -1445.535797642         1.656629718
        69           34.500000         0.022649033       101.446673056     -1445.558447977     -1445.535798944         1.638207446
        70           35.000000         0.023074605       103.352841526     -1445.558874180     -1445.535799575         1.355490261
        71           35.500000         0.023503442       105.273632476     -1445.559303298     -1445.535799856         1.700019151
        72           36.000000         0.023926565       107.168831643     -1445.559726721     -1445.535800156         1.362138332
        73           36.500000         0.024335176       108.999029151     -1445.560135888     -1445.535800712         1.642349827
        74           37.000000         0.022326048       100.000000000     -1445.560522343     -1445.538196295         1.645328013
        75           37.500000         0.022667766       101.530577537     -1445.560864235     -1445.538196469         1.916794177
        76           38.000000         0.022980571       102.931654318     -1445.561177445     -1445.538196875         1.639583209
        77           38.500000         0.023256809       104.168943569     -1445.561455205     -1445.538198397         1.647066095
        78           39.000000         0.023491696       105.221022671     -1445.561691490     -1445.538199794         1.637931003
        79           39.500000         0.023680971       106.068800060     -1445.561880938     -1445.538199967         1.638244795
        80           40.000000         0.023819726       106.690293449     -1445.562018943     -1445.538199217         1.643721005
        81           40.500000         0.023903107       107.063763000     -1445.562101696     -1445.538198589         1.668640808
        82           41.000000         0.023927557       107.173276522     -1445.562126321     -1445.538198764         1.359918395
        83           41.500000         0.023891701       107.012671625     -1445.562091022     -1445.538199322         1.644440256
        84           42.000000         0.023796185       106.584851419     -1445.561995194     -1445.538199009         1.077292637
        85           42.500000         0.023641291       105.891067780     -1445.561839720     -1445.538198429         1.924054785
        86           43.000000         0.023428293       104.937035918     -1445.561626597     -1445.538198304         1.928461636
        87           43.500000         0.023161422       103.741699304     -1445.561359329     -1445.538197907         2.438505258
        88           44.000000         0.022845741       102.327740393     -1445.561042673     -1445.538196932         1.640330357
        89           44.500000         0.022486487       100.718619439     -1445.560682372     -1445.538195884         1.643610391
        90           45.000000         0.022090070        98.943036721     -1445.560285283     -1445.538195213         1.639086834
        91           45.500000         0.021664385        97.036361824     -1445.559859001     -1445.538194616         1.641812907
        92           46.000000         0.021217837        95.036240039     -1445.559411458     -1445.538193621         1.403745256
        93           46.500000         0.020758119        92.977130883     -1445.558950619     -1445.538192500         1.720918176
        94           47.000000         0.020292287        90.890633698     -1445.558484076     -1445.538191789         1.077850740
        95           47.500000         0.022326048       100.000000000     -1445.558019176     -1445.535693127         1.949227918
        96           48.000000         0.021837034        97.809668108     -1445.557530100     -1445.535693066         1.922123582
        97           48.500000         0.021354639        95.648989138     -1445.557047360     -1445.535692720         1.636584925
        98           49.000000         0.020885664        93.548413876     -1445.556577334     -1445.535691670         1.924920470
        99           49.500000         0.020434661        91.528340766     -1445.556126006     -1445.535691344         1.642321343
       100           50.000000         0.022326048       100.000000000     -1445.555698939     -1445.533372891         5.604638514
       101           50.500000         0.021900903        98.095745473     -1445.555274329     -1445.533373425         1.931431816
       102           51.000000         0.021503762        96.316920010     -1445.554876473     -1445.533372711         1.665098630
       103           51.500000         0.021138672        94.681653972     -1445.554509999     -1445.533371327         1.922719187
       104           52.000000         0.020807353        93.197655247     -1445.554178989     -1445.533371635         1.645832863
       105           52.500000         0.020513781        91.882724384     -1445.553886951     -1445.533373169         1.643321887
       106           53.000000         0.020262775        90.758448916     -1445.553636576     -1445.533373801         1.637970709
       107           53.500000         0.022326048       100.000000000     -1445.553429684     -1445.531103636         1.931442807
       108           54.000000         0.022149348        99.208545936     -1445.553253250     -1445.531103902         1.928760100
       109           54.500000         0.022009579        98.582513239     -1445.553113677     -1445.531104098         1.636224323
       110           55.000000         0.021906182        98.119389289     -1445.553009970     -1445.531103788         1.981972905
       111           55.500000         0.021836041        97.805222351     -1445.552940063     -1445.531104022         1.636269940
       112           56.000000         0.021796753        97.629249537     -1445.552901518     -1445.531104764         1.642791056
       113           56.500000         0.021786010        97.581127797     -1445.552891235     -1445.531105226         1.642629987
       114           57.000000         0.021800547        97.646240100     -1445.552905871     -1445.531105324         1.638010776
       115           57.500000         0.021836510        97.807320907     -1445.552941878     -1445.531105369         1.638787600
       116           58.000000         0.021890297        98.048238157     -1445.552995928     -1445.531105632         1.649954376
       117           58.500000         0.021958825        98.355182812     -1445.553064753     -1445.531105927         1.638389284
       118           59.000000         0.022039147        98.714949274     -1445.553145317     -1445.531106170         1.643011751
       119           59.500000         0.022128259        99.114088733     -1445.553234628     -1445.531106369         1.647373806
       120           60.000000         0.022223184        99.539263695     -1445.553329857     -1445.531106673         1.681548373
       121           60.500000         0.022321113        99.977894212     -1445.553428228     -1445.531107115         1.643941708
       122           61.000000         0.022419380       100.418041654     -1445.553526954     -1445.531107574         1.642431074
       123           61.500000         0.022515474       100.848451708     -1445.553623380     -1445.531107906         1.637276504
       124           62.000000         0.022607005       101.258426873     -1445.553715187     -1445.531108182         1.643191216
       125           62.500000         0.022691845       101.638429260     -1445.553800330     -1445.531108485         1.360838333
       126           63.000000         0.022768411       101.981373554     -1445.553877246     -1445.531108835         1.638663601
       127           63.500000         0.022835946       102.283870038     -1445.553944728     -1445.531108782         1.075638527
       128           64.000000         0.022893729       102.542685680     -1445.554002257     -1445.531108528         1.660692981
       129           64.500000         0.022941022       102.754510704     -1445.554049584     -1445.531108562         1.637000063
       130           65.000000         0.022978003       102.920155011     -1445.554086970     -1445.531108966         1.639822830
       131           65.500000         0.023006020       103.045641382     -1445.554115332     -1445.531109312         1.959736980
       132           66.000000         0.023027110       103.140106512     -1445.554136067     -1445.531108957         1.643594760
       133           66.500000         0.023043003       103.211295062     -1445.554151237     -1445.531108234         1.637474526
       134           67.000000         0.023055241       103.266109456     -1445.554163007     -1445.531107765         1.915219299
       135           67.500000         0.023066145       103.314946901     -1445.554173893     -1445.531107748         1.640466989
       136           68.000000         0.023078756       103.371431716     -1445.554186732     -1445.531107976         1.642147849
       137           68.500000         0.023096452       103.450697176     -1445.554204596     -1445.531108144         1.927011398
       138           69.000000         0.023122800       103.568711097     -1445.554230520     -1445.531107720         1.368653086
       139           69.500000         0.023160532       103.737715760     -1445.554267750     -1445.531107218         1.916780831
       140           70.000000         0.023211958       103.968054714     -1445.554319180     -1445.531107222         1.640358639
       141           70.500000         0.023280018       104.272900673     -1445.554387587     -1445.531107569         1.946038747
       142           71.000000         0.023367758       104.665892747     -1445.554475382     -1445.531107625         1.654676705
       143           71.500000         0.023477288       105.156486477     -1445.554584482     -1445.531107194         1.925616136
       144           72.000000         0.023609647       105.749331698     -1445.554716668     -1445.531107021         1.638152449
       145           72.500000         0.023765790       106.448708901     -1445.554873253     -1445.531107463         1.635411911
       146           73.000000         0.023946993       107.260328497     -1445.555055116     -1445.531108123         1.696223974
       147           73.500000         0.024154320       108.188963977     -1445.555262760     -1445.531108440         1.921457472
       148           74.000000         0.024387996       109.235614068     -1445.555496074     -1445.531108078         1.640200675
       149           74.500000         0.022326048       100.000000000     -1445.555754509     -1445.533428461         1.646029080
       150           75.000000         0.022599391       101.224322328     -1445.556027387     -1445.533427996         1.920564376
       151           75.500000         0.022900827       102.574478570     -1445.556329287     -1445.533428459         1.656784697
       152           76.000000         0.023227736       104.038723566     -1445.556657337     -1445.533429601         1.947205568
       153           76.500000         0.023578437       105.609540094     -1445.557007758     -1445.533429321         1.640729292
       154           77.000000         0.023947357       107.261960509     -1445.557375936     -1445.533428579         1.925845739
       155           77.500000         0.024327075       108.962745008     -1445.557756511     -1445.533429436         1.659211953
       156           78.000000         0.022326048       100.000000000     -1445.558143509     -1445.535817460         1.919359769
       157           78.500000         0.022697644       101.664403555     -1445.558515327     -1445.535817683         1.921594215
       158           79.000000         0.023070968       103.336552538     -1445.558888864     -1445.535817896         2.024616634
       159           79.500000         0.023438451       104.982535126     -1445.559257332     -1445.535818880         1.654376448
       160           80.000000         0.023794069       106.575371180     -1445.559614181     -1445.535820112         1.635978068
       161           80.500000         0.024132287       108.090274081     -1445.559953002     -1445.535820715         1.694299455
       162           81.000000         0.024447561       109.502412202     -1445.560268091     -1445.535820530         1.645188796
       163           81.500000         0.022326048       100.000000000     -1445.560554589     -1445.538228541         1.640071497
       164           82.000000         0.022572096       101.102066762     -1445.560800139     -1445.538228043         1.925142596
       165           82.500000         0.022792308       102.088412087     -1445.561020618     -1445.538228310         1.647935826
       166           83.000000         0.022984707       102.950182903     -1445.561214373     -1445.538229665         1.640671161
       167           83.500000         0.023150216       103.691506624     -1445.561380750     -1445.538230535         2.406706891
       168           84.000000         0.023289656       104.316071358     -1445.561519782     -1445.538230126         1.636229591
       169           84.500000         0.023403115       104.824260657     -1445.561632215     -1445.538229100         1.639855212
       170           85.000000         0.023491028       105.218029044     -1445.561719411     -1445.538228383         1.750079998
       171           85.500000         0.023554722       105.503320883     -1445.561783165     -1445.538228443         1.398346487
       172           86.000000         0.023596743       105.691536964     -1445.561825650     -1445.538228906         1.660171749
       173           86.500000         0.023620472       105.797817133     -1445.561849355     -1445.538228883         1.360999372
       174           87.000000         0.023628938       105.835738827     -1445.561857084     -1445.538228146         1.637890605
       175           87.500000         0.023624371       105.815281093     -1445.561851880     -1445.538227510         1.637559218
       176           88.000000         0.023609227       105.747451119     -1445.561836756     -1445.538227529         1.643952578
       177           88.500000         0.023587067       105.648197374     -1445.561815061     -1445.538227994         1.644845285
       178           89.000000         0.023561989       105.535869872     -1445.561790133     -1445.538228144         1.636324815
       179           89.500000         0.023537540       105.426359545     -1445.561765183     -1445.538227643         1.642514915
       180           90.000000         0.023516409       105.331712909     -1445.561743327     -1445.538226918         1.634400666
       181           90.500000         0.023500911       105.262295049     -1445.561727491     -1445.538226581         1.632574094
       182           91.000000         0.023493384       105.228582638     -1445.561720176     -1445.538226792         1.446612976
       183           91.500000         0.023496257       105.241450079     -1445.561723450     -1445.538227193         1.637112850
       184           92.000000         0.023511864       105.311353983     -1445.561738926     -1445.538227062         1.353724998
       185           92.500000         0.023541209       105.442794992     -1445.561767664     -1445.538226455         1.642972705
       186           93.000000         0.023583843       105.633756861     -1445.561810116     -1445.538226272         1.638657490
       187           93.500000         0.023639351       105.882379197     -1445.561866153     -1445.538226803         1.633510916
       188           94.000000         0.023707766       106.188815157     -1445.561935366     -1445.538227600         1.641714266
       189           94.500000         0.023788919       106.552305461     -1445.562016980     -1445.538228061         1.634694352
       190           95.000000         0.023881843       106.968520085     -1445.562109870     -1445.538228026         1.641326330
       191           95.500000         0.023984746       107.429427784     -1445.562212650     -1445.538227904         1.659301555
       192           96.000000         0.024095462       107.925335522     -1445.562323610     -1445.538228148         1.640336518
       193           96.500000         0.024211844       108.446615402     -1445.562440679     -1445.538228836         1.670536643
       194           97.000000         0.024331679       108.983368210     -1445.562561314     -1445.538229635         1.360027214
       195           97.500000         0.024452452       109.524319157     -1445.562682692     -1445.538230240         1.634012660
       196           98.000000         0.022326048       100.000000000     -1445.562801648     -1445.540475600         1.358943861
       197           98.500000         0.022437536       100.499360470     -1445.562912970     -1445.540475434         1.926158830
       198           99.000000         0.022546340       100.986704328     -1445.563022056     -1445.540475715         1.914039231
       199           99.500000         0.022648236       101.443102862     -1445.563124902     -1445.540476666         1.662231027
       200          100.000000         0.022739750       101.853002221     -1445.563217288     -1445.540477538         6.306902490
       201          100.500000         0.022817161       102.199731787     -1445.563295071     -1445.540477909         1.696102201
       202          101.000000         0.022876428       102.465189764     -1445.563354288     -1445.540477860         1.638423850
       203          101.500000         0.022913822       102.632680777     -1445.563391680     -1445.540477858         1.642722695
       204          102.000000         0.022926575       102.689802649     -1445.563404965     -1445.540478390         1.356751165
       205          102.500000         0.022913507       102.631270653     -1445.563392753     -1445.540479246         1.641734324
       206          103.000000         0.022874790       102.457854710     -1445.563354319     -1445.540479529         1.081336421
       207          103.500000         0.022810353       102.169238427     -1445.563289770     -1445.540479417         1.940813120
       208          104.000000         0.022720126       101.765104110     -1445.563199566     -1445.540479440         1.634503955
       209          104.500000         0.022605111       101.249941136     -1445.563084970     -1445.540479859         1.639881573
       210          105.000000         0.022467332       100.632820088     -1445.562947699     -1445.540480367         1.635017922
       211          105.500000         0.022309383        99.925354739     -1445.562789845     -1445.540480462         1.917511567
       212          106.000000         0.022133989        99.139752605     -1445.562614044     -1445.540480055         1.700629154
       213          106.500000         0.021943838        98.288051658     -1445.562423481     -1445.540479644         1.639006840
       214          107.000000         0.021742127        97.384573081     -1445.562221758     -1445.540479632         1.633689128
       215          107.500000         0.021533302        96.449232571     -1445.562013025     -1445.540479723         1.639973220
       216          108.000000         0.021322716        95.506004163     -1445.561802210     -1445.540479493         1.634949210
       217          108.500000         0.021115709        94.578804716     -1445.561594571     -1445.540478861         1.636887718
       218          109.000000         0.020917314        93.690176400     -1445.561395485     -1445.540478171         1.358350870
       219          109.500000         0.020732706        92.863304462     -1445.561210401     -1445.540477695         1.634326023
       220          110.000000         0.020567341        92.122622098     -1445.561044698     -1445.540477357         1.357315210
       221          110.500000         0.020426435        91.491491766     -1445.560903563     -1445.540477128         1.640380613
       222          111.000000         0.020314737        90.991189022     -1445.560791685     -1445.540476949         1.637222310
       223          111.500000         0.020236491        90.640721385     -1445.560713108     -1445.540476617         1.686814186
       224          112.000000         0.020195073        90.455207525     -1445.560671187     -1445.540476113         1.364495333
       225          112.500000         0.020192533        90.443829738     -1445.560668288     -1445.540475755         1.664221223
       226          113.000000         0.020229792        90.610716124     -1445.560705701     -1445.540475909         1.084364542
       227          113.500000         0.020307476        90.958668938     -1445.560783698     -1445.540476222         1.921832011