     192
 i =        1, E =     -5771.3713065440
Ti         0.0006350441        0.0006304818       -0.0000018711
Ti        -0.0009643981       -0.0009681449       -0.0000057062
Ti         0.0006363201       -0.0009859316       -0.0006180600
Ti        -0.0009893570        0.0006347355        0.0006246522
Ti         0.0006410847       -0.0014401790        0.0002997896
Ti        -0.0009893014       -0.0006935684       -0.0006278522
Ti         0.0009419411       -0.0009641334        0.0000050412
Ti        -0.0003723098        0.0006426658        0.0004274640
Ti        -0.0009355855       -0.0014303138        0.0003178074
Ti         0.0006330224       -0.0006941012        0.0000023109
Ti        -0.0003827416       -0.0009165381        0.0001940067
Ti         0.0009632103        0.0006328061       -0.0006275761
Ti        -0.0014434639        0.0006401604       -0.0002989223
Ti        -0.0006914389       -0.0009892733        0.0006204427
Ti        -0.0006913901        0.0006339847        0.0000007283
Ti        -0.0014327160       -0.0009402414       -0.0003093080
Ti        -0.0009203686       -0.0003754779       -0.0001998210
Ti         0.0006387121        0.0009685370        0.0006264994
Ti         0.0006458912       -0.0003729008       -0.0004222206
Ti        -0.0009674961        0.0009389731       -0.0000013594
Ti         0.0006506404        0.0004308751        0.0004281829
Ti        -0.0009446744        0.0014482876       -0.0003151262
Ti         0.0004354949       -0.0009207849       -0.0001958847
Ti         0.0014589504        0.0006355476        0.0003051480
Ti        -0.0009160962        0.0004393436        0.0001975241
Ti         0.0006387758        0.0014611811       -0.0002929845
Ti         0.0014501330       -0.0009375181        0.0003100966
Ti         0.0004348808        0.0006438367       -0.0004282641
Ti        -0.0014139721       -0.0014119202       -0.0000019072
Ti        -0.0006870626       -0.0006929815       -0.0000040505
Ti         0.0008936508       -0.0003757870        0.0002005274
Ti        -0.0003801037        0.0008908521       -0.0001974335
Ti        -0.0006922367       -0.0014445175       -0.0003002605
Ti        -0.0014466260       -0.0006924204        0.0003069505
Ti        -0.0003818030       -0.0003807891       -0.0000008526
Ti         0.0009406286        0.0009439468        0.0000007224
Ti         0.0009646502       -0.0006950329        0.0006266217
Ti        -0.0003837606       -0.0014016345        0.0001070048
Ti        -0.0014370421        0.0009122860        0.0003149719
Ti        -0.0006950294       -0.0003675097        0.0004238452
Ti        -0.0003789666       -0.0006964245       -0.0004281905
Ti         0.0009151570       -0.0014358448       -0.0003121898
Ti        -0.0006937206        0.0009614930       -0.0006296929
Ti        -0.0014032551       -0.0003805169       -0.0001071373
Ti        -0.0014056893        0.0004353638        0.0001037419
Ti        -0.0006959644        0.0014580942        0.0002999400
Ti         0.0004387742       -0.0003778505        0.0000046989
Ti         0.0014523543        0.0009081940       -0.0003196728
Ti        -0.0006989142        0.0004378001       -0.0004367939
Ti        -0.0014191651        0.0014306545        0.0000003991
Ti         0.0014165116       -0.0003743394        0.0001065467
Ti         0.0004381357        0.0008939011        0.0001926226
Ti         0.0009127912        0.0014470093        0.0003218676
Ti        -0.0003828407        0.0004429069       -0.0000036237
Ti        -0.0003811814        0.0014118598       -0.0001005997
Ti         0.0008901934        0.0004422104       -0.0001947869
Ti         0.0014281141       -0.0014113418       -0.0000014431
Ti         0.0004362226       -0.0006926813        0.0004308446
Ti         0.0004366751       -0.0014037961       -0.0001093400
Ti         0.0014611305       -0.0006988627       -0.0003030433
Ti         0.0004395134        0.0004404292        0.0000003065
Ti         0.0014381119        0.0014247163        0.0000051088
Ti         0.0004464156        0.0014095868        0.0001087324
Ti         0.0014183031        0.0004478254       -0.0001148066
O        -0.0001534366        0.0000947873       -0.0012741141
O         0.0007339819        0.0003683411       -0.0011751909
O         0.0001145581        0.0007836416       -0.0009621478
O         0.0003945140       -0.0001450207       -0.0014556150
O         0.0007851275        0.0001094615        0.0009718993
O        -0.0001474027        0.0003978126        0.0014573950
O         0.0003750695        0.0007334964        0.0011727918
O         0.0000874261       -0.0001580994        0.0012713490
O        -0.0001549115       -0.0005831401       -0.0012886031
O         0.0007848812       -0.0001180872       -0.0009653799
O        -0.0003899215        0.0007340091       -0.0011674725
O        -0.0001154068       -0.0001481337       -0.0014256476
O         0.0006505353       -0.0005828570        0.0010059962
O        -0.0001551324       -0.0001041541        0.0012747016
O        -0.0001156127        0.0006369685        0.0011540028
O        -0.0004159430       -0.0001498696        0.0014554261
O        -0.0005812698       -0.0001512843        0.0012830206
O        -0.0001235719        0.0007840309        0.0009595965
O        -0.0001023119       -0.0001467899       -0.0012736290
O        -0.0005817082        0.0006540623       -0.0010116150
O         0.0006234191       -0.0001118613       -0.0011503104
O        -0.0001477358       -0.0004146666       -0.0014562965
O        -0.0001590464       -0.0001168253        0.0014229500
O         0.0007401922       -0.0003925795        0.0011728265
O        -0.0001528756        0.0001301152       -0.0014225691
O         0.0006545167        0.0005737773       -0.0010092141
O         0.0001295045        0.0006235125       -0.0011490666
O         0.0005717203       -0.0001457750       -0.0012835900
O         0.0006347011        0.0001301440        0.0011549452
O        -0.0001572331        0.0005697835        0.0012791368
O         0.0005722754        0.0006587089        0.0010054631
O         0.0001286741       -0.0001514337        0.0014223695
O        -0.0004604474        0.0001297397       -0.0008921779
O         0.0001897965        0.0004017846       -0.0014605931
O         0.0001425296       -0.0006919927       -0.0008823024
O         0.0003741614       -0.0007443178       -0.0011822388
O         0.0001936345        0.0000979646        0.0012782374
O        -0.0004618093        0.0003483221        0.0011055217
O         0.0003368181       -0.0006950606        0.0010795029
O         0.0001160679       -0.0007940262        0.0009689198
O        -0.0007461657        0.0003708493        0.0011811342
O        -0.0006922131        0.0001436792        0.0008871172
O        -0.0006912845        0.0003384467       -0.0010811582
O        -0.0007973300        0.0001130111       -0.0009762034
O         0.0003483777       -0.0004633439       -0.0011019710
O         0.0000962182        0.0001966287       -0.0012806297
O         0.0001304857       -0.0004583878        0.0008865805
O         0.0003984119        0.0001885960        0.0014616079
O        -0.0004940624       -0.0005806773       -0.0009327425
O         0.0002040096       -0.0001032899       -0.0012708749
O        -0.0003549138       -0.0006925613       -0.0010728882
O        -0.0001188102       -0.0006366934       -0.0011503947
O         0.0001817116       -0.0005792133        0.0012923626
O        -0.0004493113       -0.0001435267        0.0008890256
O        -0.0001239753       -0.0007158568        0.0009487063
O        -0.0003939235       -0.0007495369        0.0011789844
O        -0.0007929279       -0.0001217876        0.0009723417
O        -0.0007066323       -0.0005914384        0.0008551514
O        -0.0005826114       -0.0006649754        0.0010163699
O        -0.0001493327       -0.0006951851        0.0008800483
O        -0.0006908994       -0.0001481383       -0.0008825304
O        -0.0006632443       -0.0005822861       -0.0010151908
O        -0.0001223997       -0.0008008687       -0.0009650495
O        -0.0005923502       -0.0007067139       -0.0008519580
O        -0.0007155510       -0.0001269146       -0.0009489631
O        -0.0007491719       -0.0003945271       -0.0011781105
O        -0.0001404111       -0.0004536674       -0.0008875630
O        -0.0005822915        0.0001836989       -0.0012910046
O        -0.0006394341       -0.0001167391        0.0011489294
O        -0.0006906783       -0.0003587383        0.0010718908
O        -0.0005815312       -0.0004956801        0.0009307478
O        -0.0001022039        0.0002007773        0.0012749794
O         0.0001828108       -0.0004211568        0.0014571846
O        -0.0004963689       -0.0001169477        0.0010690295
O        -0.0001123646        0.0001759500        0.0014260386
O        -0.0003663979       -0.0004617154        0.0010987696
O        -0.0004575067       -0.0003678020       -0.0011004482
O         0.0001814539       -0.0001155665       -0.0014274115
O        -0.0004171647        0.0001898896       -0.0014560580
O        -0.0001155022       -0.0004950253       -0.0010660769
O        -0.0004976064        0.0001333494       -0.0010688796
O         0.0001856969        0.0005716570       -0.0012838737
O         0.0001381427       -0.0007144827       -0.0009460908
O         0.0005718359       -0.0006640519       -0.0010114951
O         0.0001796826        0.0001271835        0.0014292265
O        -0.0004878319        0.0005672346        0.0009277583
O         0.0005811121       -0.0007095908        0.0008475000
O         0.0001314123       -0.0006386403        0.0011492845
O        -0.0006588430        0.0005728228        0.0010121219
O        -0.0007165003        0.0001374466        0.0009457100
O        -0.0007047539        0.0005854061       -0.0008477057
O        -0.0006392178        0.0001307248       -0.0011567004
O         0.0005719769       -0.0004872977       -0.0009213427
O         0.0001269077        0.0001812403       -0.0014265492
O         0.0001277290       -0.0005005534        0.0010601201
O         0.0005697148        0.0001831755        0.0012837997
O         0.0007453627        0.0001400288       -0.0008879257
O         0.0004040385        0.0003489282       -0.0011077214
O         0.0001302647        0.0003994354       -0.0008914469
O         0.0003381631        0.0007420836       -0.0010806021
O         0.0003983673        0.0001291722        0.0008953614
O         0.0007442540        0.0003337172        0.0010805138
O         0.0003531326        0.0004021207        0.0011092168
O         0.0001421008        0.0007455614        0.0008824490
O         0.0007605061       -0.0005938647       -0.0008520231
O         0.0003941393       -0.0001378591       -0.0008910009
O        -0.0003650203        0.0004062306       -0.0011103874
O        -0.0001275680        0.0007681287       -0.0009482267
O         0.0004381474       -0.0005847872        0.0009299494
O         0.0007432350       -0.0001498199        0.0008854691
O        -0.0001178672        0.0004506609        0.0010628636
O        -0.0003576794        0.0007419905        0.0010794849
O        -0.0005927449        0.0007626799        0.0008572640
O        -0.0001436754        0.0003944102        0.0008875869
O        -0.0001505619        0.0007422125       -0.0008774946
O        -0.0005878564        0.0004349342       -0.0009370754
O         0.0004460361       -0.0001132900       -0.0010648695
O         0.0007416656       -0.0003577594       -0.0010712431
O         0.0007690253       -0.0001259301        0.0009467532
O         0.0003963394       -0.0003736201        0.0011012128
O         0.0007690671        0.0001403817       -0.0009502666
O         0.0004316295        0.0005765105       -0.0009364459
O         0.0001311136        0.0004527019       -0.0010622517
O         0.0005820642        0.0007550333       -0.0008540264
O         0.0004359343        0.0001296218        0.0010738518
O         0.0007565406        0.0005809308        0.0008493824
O         0.0005758683        0.0004389591        0.0009350755
O         0.0001412296        0.0007683634        0.0009507226
     192
 i =        2, E =     -5771.3726083014
Ti         0.0000971942        0.0001017590        0.0000020313
Ti         0.0000072127        0.0000041820       -0.0000004562
Ti         0.0000889478        0.0000380685        0.0005365959
Ti         0.0000353375        0.0000905888       -0.0005463582
Ti         0.0000853691       -0.0007891869        0.0002321122
Ti         0.0000375984       -0.0000706623        0.0005310132
Ti        -0.0000379535        0.0000084175       -0.0000238976
Ti        -0.0008959608        0.0000793706       -0.0001025259
Ti        -0.0000221300       -0.0008028386       -0.0007545995
Ti         0.0000996237       -0.0000826147        0.0000071547
Ti        -0.0008914784       -0.0000444762       -0.0004387675
Ti        -0.0000682445        0.0000914892        0.0005665519
Ti        -0.0007870029        0.0000853260       -0.0002242952
Ti        -0.0000738582        0.0000363112       -0.0005303657
Ti        -0.0000799273        0.0001066284       -0.0000084512
Ti        -0.0008063038       -0.0000203314        0.0007570570
Ti        -0.0000473263       -0.0008902359        0.0004400575
Ti         0.0000869270       -0.0000671428       -0.0005587898
Ti         0.0000788994       -0.0008975052        0.0001009577
Ti         0.0000084095       -0.0000396915        0.0000177246
Ti         0.0000769872        0.0009503359       -0.0000948904
Ti        -0.0000165190        0.0007579459        0.0007493823
Ti         0.0009508888       -0.0000446801        0.0004437833
Ti         0.0007393364        0.0000887103        0.0002201646
Ti        -0.0000447322        0.0009510473       -0.0004484226
Ti         0.0000848279        0.0007424768       -0.0002203503
Ti         0.0007590419       -0.0000184871       -0.0007489180
Ti         0.0009538642        0.0000790908        0.0000996254
Ti        -0.0008153597       -0.0008149012        0.0000046694
Ti        -0.0000817988       -0.0000829804       -0.0000040668
Ti         0.0000136499       -0.0008934716       -0.0004631077
Ti        -0.0008907117        0.0000106808        0.0004586322
Ti        -0.0000731210       -0.0007883956       -0.0002365427
Ti        -0.0007877946       -0.0000724561        0.0002381807
Ti        -0.0008929305       -0.0008956164        0.0000019868
Ti        -0.0000396553       -0.0000401938        0.0000030142
Ti        -0.0000670781       -0.0000731574       -0.0005539891
Ti        -0.0008874384       -0.0008350485       -0.0002780585
Ti        -0.0008000258       -0.0000127697       -0.0007777498
Ti        -0.0000659021       -0.0008935738       -0.0000942362
Ti        -0.0008954812       -0.0000689453        0.0000955766
Ti        -0.0000110927       -0.0008030141        0.0007811492
Ti        -0.0000732167       -0.0000699483        0.0005510387
Ti        -0.0008372904       -0.0008908169        0.0002732113
Ti        -0.0008333411        0.0009456455       -0.0002754878
Ti        -0.0000758264        0.0007432748        0.0002284798
Ti         0.0009556591       -0.0008977987        0.0000045977
Ti         0.0007526624       -0.0000150278        0.0007667058
Ti        -0.0000661020        0.0009533208        0.0000847066
Ti        -0.0008114377        0.0007710862        0.0000086197
Ti         0.0007926187       -0.0008885466       -0.0002708421
Ti         0.0009456985        0.0000098327       -0.0004673051
Ti        -0.0000096413        0.0007577852       -0.0007651000
Ti        -0.0008932708        0.0009592859       -0.0000033618
Ti        -0.0008846226        0.0007983050        0.0002777652
Ti         0.0000133290        0.0009452560        0.0004648718
Ti         0.0007714782       -0.0008085899       -0.0000069791
Ti         0.0009524337       -0.0000674296       -0.0000875761
Ti         0.0009491933       -0.0008355766        0.0002765183
Ti         0.0007389975       -0.0000737730       -0.0002285549
Ti         0.0009524313        0.0009526917       -0.0000034091
Ti         0.0007659790        0.0007713567        0.0000060450
Ti         0.0009462122        0.0007947333       -0.0002653879
Ti         0.0007905339        0.0009473736        0.0002654968
O         0.0001701820        0.0005209379       -0.0000005439
O        -0.0003932660       -0.0002783632        0.0003221835
O         0.0004893580       -0.0004365578        0.0002836500
O        -0.0002802106        0.0001671785        0.0000484835
O        -0.0004360688        0.0004899589       -0.0002801975
O         0.0001697303       -0.0002747837       -0.0000500071
O        -0.0002708403       -0.0003932338       -0.0003203535
O         0.0005202875        0.0001704782        0.0000009616
O         0.0001730217        0.0003406021       -0.0005857866
O        -0.0004384932       -0.0004657050        0.0002963244
O         0.0002819947       -0.0003964736        0.0003557217
O         0.0000361580        0.0001562839       -0.0003406447
O        -0.0003290919        0.0003249321        0.0002866469
O         0.0001692876       -0.0004992590       -0.0000102416
O         0.0000323086       -0.0003302027        0.0000417994
O         0.0002911913        0.0001654280       -0.0000827973
O         0.0003440724        0.0001696984        0.0005862367
O        -0.0004644119       -0.0004370763       -0.0002953864
O        -0.0004974132        0.0001685526        0.0000090879
O         0.0003224969       -0.0003333033       -0.0002922968
O        -0.0003254122        0.0000363208       -0.0000369053
O         0.0001695109        0.0002885985        0.0000842425
O         0.0001614314        0.0000375658        0.0003354879
O        -0.0003976610        0.0002833790       -0.0003541272
O         0.0001595702       -0.0000419142       -0.0003475766
O        -0.0003352479       -0.0003359753       -0.0002815034
O        -0.0000403059       -0.0003280982       -0.0000539796
O        -0.0003583678        0.0001673459       -0.0005802836
O        -0.0003295443       -0.0000393513        0.0000559900
O         0.0001744969       -0.0003581529        0.0005722759
O        -0.0003370172       -0.0003333479        0.0002832885
O        -0.0000414928        0.0001555959        0.0003523401
O         0.0005813624        0.0004556496        0.0003082759
O        -0.0001930257       -0.0002745502        0.0000468594
O         0.0004423030       -0.0005473427        0.0005063375
O        -0.0002695771        0.0004153586        0.0003164285
O        -0.0001977365        0.0005241442        0.0000040956
O         0.0005777213       -0.0002673660       -0.0003270816
O        -0.0002649656       -0.0005436457       -0.0005102100
O         0.0004925579        0.0004595463       -0.0002792315
O         0.0004156974       -0.0002665455       -0.0003143723
O        -0.0005438660        0.0004418226       -0.0005060692
O        -0.0005449613       -0.0002585994        0.0005086671
O         0.0004597094        0.0004891446        0.0002745917
O        -0.0002682918        0.0005767172        0.0003283890
O         0.0005196708       -0.0002001867       -0.0000059454
O         0.0004571303        0.0005805347       -0.0003105007
O        -0.0002749552       -0.0001942727       -0.0000451301
O         0.0005832824        0.0003135196       -0.0002980981
O        -0.0001988617       -0.0005031919        0.0000124850
O         0.0002665346       -0.0005460195        0.0005464173
O         0.0000347913        0.0003481862       -0.0000447106
O        -0.0001904790        0.0003455110        0.0005880653
O         0.0005802569       -0.0004292090       -0.0003201011
O         0.0000379692       -0.0005853872       -0.0001246548
O         0.0002803980        0.0004206460       -0.0003492502
O         0.0004624846       -0.0004667345       -0.0002885054
O        -0.0005602646        0.0003057530        0.0001115436
O         0.0003240073        0.0003537816        0.0002982629
O        -0.0004193575       -0.0005444912       -0.0005169933
O        -0.0005444374       -0.0004202286        0.0005173634
O         0.0003549040        0.0003222338       -0.0002978453
O        -0.0004653013        0.0004654669        0.0002913271
O         0.0003025637       -0.0005618109       -0.0001089121
O        -0.0005828382        0.0000325476        0.0001259558
O         0.0004193070        0.0002862446        0.0003478602
O        -0.0004320817        0.0005788461        0.0003180672
O         0.0003447179       -0.0001903749       -0.0005918207
O         0.0003488395        0.0000351728        0.0000438660
O        -0.0005425251        0.0002667253       -0.0005472259
O         0.0003059376        0.0005851215        0.0002952420
O        -0.0004962742       -0.0001997107       -0.0000081616
O        -0.0001937429        0.0002865188       -0.0000832335
O         0.0005690573        0.0000390126        0.0000774450
O         0.0000362224       -0.0001697432        0.0003414347
O         0.0002756998        0.0005699699       -0.0003627812
O         0.0005664747        0.0002707048        0.0003611004
O        -0.0001728049        0.0000395575       -0.0003384180
O         0.0002880081       -0.0001966187        0.0000838757
O         0.0000385740        0.0005711018       -0.0000781568
O         0.0005699929       -0.0000467663       -0.0000895384
O        -0.0001909359       -0.0003610800       -0.0005762826
O        -0.0000401064       -0.0005847136        0.0001152383
O        -0.0003385047        0.0003545644       -0.0002868187
O        -0.0001761070       -0.0000427536        0.0003529965
O         0.0005833258       -0.0003224777        0.0002861798
O        -0.0003194534       -0.0005571595        0.0000985389
O        -0.0000407096        0.0003482452        0.0000587225
O         0.0003505496       -0.0003410375        0.0002878467
O        -0.0005820061       -0.0000380201       -0.0001185146
O        -0.0005590246       -0.0003194176       -0.0000979918
O         0.0003462441       -0.0000410374       -0.0000598038
O        -0.0003266983        0.0005855681       -0.0002815590
O        -0.0000428785       -0.0001729512       -0.0003555037
O        -0.0000446939        0.0005679892        0.0000833270
O        -0.0003608103       -0.0001920797        0.0005791021
O         0.0004980863        0.0004423949        0.0005047795
O        -0.0005535340       -0.0002690772        0.0003187148
O         0.0004593156       -0.0005565157        0.0002974085
O        -0.0002600781        0.0005016246        0.0005078151
O        -0.0005579676        0.0004575601       -0.0002965570
O         0.0004982244       -0.0002578105       -0.0005084708
O        -0.0002702812       -0.0005535468       -0.0003168446
O         0.0004449983        0.0004962648       -0.0005063142
O         0.0005104753        0.0003026185       -0.0001116584
O        -0.0005564376       -0.0004369074        0.0003086655
O         0.0002787083       -0.0005524688        0.0003482653
O         0.0000355980        0.0005348107        0.0001194985
O        -0.0005655247        0.0003098195        0.0002995514
O         0.0005001535       -0.0004175646       -0.0005176274
O         0.0000368072       -0.0005515713        0.0000772808
O         0.0002656636        0.0004957096       -0.0005418665
O         0.0003029152        0.0005084906        0.0001174756
O        -0.0004337286       -0.0005588963       -0.0003095826
O        -0.0004199007        0.0004996707        0.0005197777
O         0.0003041644       -0.0005661233       -0.0003073791
O        -0.0005492088        0.0000388800       -0.0000785037
O         0.0004979380        0.0002651698        0.0005472159
O         0.0005355056        0.0000360370       -0.0001231567
O        -0.0005472316        0.0002788533       -0.0003539213
O         0.0005323651       -0.0000373366        0.0001127502
O        -0.0005595982       -0.0003242158       -0.0002972131
O        -0.0000458359       -0.0005530315       -0.0000900407
O        -0.0003191736        0.0005117080       -0.0001021907
O        -0.0005507954       -0.0000388895        0.0000946536
O         0.0005118511       -0.0003213037        0.0000972170
O        -0.0003181720       -0.0005696951        0.0002945282
O        -0.0000431995        0.0005289696       -0.0001068117
     192
 i =        3, E =     -5771.3728772123
Ti         0.0001999703        0.0002020082       -0.0000004737
Ti         0.0000063023        0.0000064034        0.0000012471
Ti         0.0001985076        0.0000058109        0.0001159667
Ti         0.0000043446        0.0001995702       -0.0001196895
Ti         0.0001985494        0.0000206031        0.0003568332
Ti         0.0000039122       -0.0001916005        0.0001089101
Ti         0.0000012135        0.0000065917       -0.0000194246
Ti        -0.0003158960        0.0001961908        0.0005090496
Ti         0.0000067954        0.0000219337       -0.0004680634
Ti         0.0002009636       -0.0001967016        0.0000074783
Ti        -0.0003212349        0.0000060379       -0.0006145402
Ti         0.0000036868        0.0001972711        0.0001372808
Ti         0.0000232420        0.0001971694       -0.0003546937
Ti        -0.0001927503        0.0000043704       -0.0001073232
Ti        -0.0001957174        0.0002027438       -0.0000080970
Ti         0.0000206763        0.0000069611        0.0004684655
Ti         0.0000056924       -0.0003237686        0.0006155366
Ti         0.0001968320        0.0000036623       -0.0001369017
Ti         0.0001974149       -0.0003162222       -0.0005076196
Ti         0.0000033415        0.0000013944        0.0000181124
Ti         0.0001946996        0.0003062093        0.0004995250
Ti         0.0000071802       -0.0000306101        0.0004476428
Ti         0.0003120534        0.0000072456        0.0006078094
Ti        -0.0000324324        0.0001986113        0.0003350920
Ti         0.0000039062        0.0003105458       -0.0006079757
Ti         0.0001990810       -0.0000316304       -0.0003361360
Ti        -0.0000310721        0.0000081473       -0.0004472607
Ti         0.0003056387        0.0001947403       -0.0005009188
Ti         0.0000139974        0.0000153487        0.0000019249
Ti        -0.0001973249       -0.0001975383       -0.0000002739
Ti        -0.0000004954       -0.0003220560       -0.0006338676
Ti        -0.0003211543        0.0000012385        0.0006345962
Ti        -0.0001918587        0.0000199197       -0.0003651472
Ti         0.0000212829       -0.0001903550        0.0003643148
Ti        -0.0003543625       -0.0003568909       -0.0000005103
Ti         0.0000023065        0.0000040534        0.0000001223
Ti         0.0000046351       -0.0001927384       -0.0001288072
Ti        -0.0003385953        0.0000107095        0.0001545272
Ti         0.0000213254       -0.0000014557       -0.0004863139
Ti        -0.0001888897       -0.0003167450        0.0005172822
Ti        -0.0003145501       -0.0001875655       -0.0005171539
Ti        -0.0000011826        0.0000202309        0.0004876020
Ti        -0.0001914947        0.0000065720        0.0001277386
Ti         0.0000103010       -0.0003419006       -0.0001558966
Ti         0.0000127030        0.0003295058        0.0001455508
Ti        -0.0001925995       -0.0000286773        0.0003440997
Ti         0.0003439483       -0.0003566991       -0.0000083330
Ti        -0.0000307469        0.0000031851        0.0004679822
Ti        -0.0001872724        0.0003046821       -0.0005087576
Ti         0.0000168600       -0.0000241122        0.0000193419
Ti        -0.0000198297       -0.0003419398        0.0001730212
Ti         0.0003104398       -0.0000005801       -0.0006259299
Ti         0.0000001194       -0.0000311476       -0.0004655110
Ti        -0.0003533695        0.0003439180        0.0000120466
Ti        -0.0003357316       -0.0000178227       -0.0001752232
Ti         0.0000003975        0.0003098065        0.0006252525
Ti        -0.0000246789        0.0000158316       -0.0000190841
Ti         0.0003051699       -0.0001889775        0.0005102421
Ti         0.0003313748        0.0000117206       -0.0001450619
Ti        -0.0000312812       -0.0001913285       -0.0003432897
Ti         0.0003423957        0.0003430611       -0.0000015829
Ti        -0.0000265286       -0.0000231940       -0.0000004656
Ti         0.0003259482       -0.0000193742        0.0001661637
Ti        -0.0000203223        0.0003251692       -0.0001630695
O        -0.0000873050       -0.0002074935        0.0002018908
O         0.0000036489        0.0001096755        0.0004505448
O        -0.0002081889        0.0000150721        0.0001864116
O         0.0001195414       -0.0000898964        0.0004445458
O         0.0000144409       -0.0002076200       -0.0001870992
O        -0.0000902046        0.0001191637       -0.0004438689
O         0.0001099491        0.0000040923       -0.0004497152
O        -0.0002073104       -0.0000853041       -0.0002015613
O        -0.0000900500        0.0000303724       -0.0001359289
O         0.0000161848        0.0002160505        0.0001852510
O        -0.0001033957        0.0000059027        0.0004640428
O         0.0001479161       -0.0000832657       -0.0000105435
O        -0.0000017052        0.0000280436        0.0001734919
O        -0.0000861293        0.0002155840       -0.0001982297
O         0.0001438002        0.0000056544        0.0000844698
O        -0.0001129878       -0.0000864216       -0.0004574721
O         0.0000307825       -0.0000903284        0.0001367351
O         0.0002161805        0.0000159120       -0.0001845031
O         0.0002177862       -0.0000875523        0.0001991263
O         0.0000267331       -0.0000020767       -0.0001738620
O         0.0000085962        0.0001446373       -0.0000841711
O        -0.0000892497       -0.0001148549        0.0004576197