     192
 i =        1, E =     -5771.3713065440
Ti        -0.0006965080       -0.0007015813        0.0000042933
Ti         1.8925450429        1.8925632123        4.8075183385
Ti        -0.0006843981        1.8925550699        2.4026410272
Ti         1.8925712205       -0.0006818141        7.2123653447
Ti        -0.0006568361        3.7811230332        0.0016598374
Ti         1.8925654700       13.2394804582        4.8064003975
Ti        11.3462907039        1.8925493718        2.4037128531
Ti         5.6738347407       -0.0006583139        7.2133033443
Ti         1.8925302760        3.7811369525        7.2107299158
Ti        -0.0007046795       13.2395071618        2.4037747122
Ti         5.6738477206        1.8925012019        4.8065687175
Ti        11.3462779876       -0.0006712257       -0.0010757044
Ti         3.7811246083       -0.0006453694       -0.0016544172
Ti        13.2394734852        1.8925509941        4.8086392106
Ti        13.2395112766       -0.0007225781        7.2112563607
Ti         3.7811483489        1.8925394708        2.4042840488
Ti         1.8925156651        5.6738340728        4.8084470900
Ti        -0.0006832195       11.3462740320        0.0010820325
Ti        -0.0006600076        5.6738364218        2.4017059609
Ti         1.8925539627       11.3462859381        7.2113085735
Ti        -0.0006564214        7.5651210434        0.0020232060
Ti         1.8925469122        9.4577626267        4.8080236149
Ti         7.5651174729        1.8925279079        2.4046761201
Ti         9.4577897463       -0.0006582945        7.2128823795
Ti         1.8925160445        7.5650931488        7.2103330840
Ti        -0.0006545250        9.4577805037        2.4021278049
Ti         9.4577596639        1.8925327982        4.8070101906
Ti         7.5651084122       -0.0006389398       -0.0020237709
Ti         3.7811564287        3.7811591398       -0.0000020923
Ti        13.2394952120       13.2395092869        4.8075133595
Ti        11.3463283035        5.6738396758        2.4027890729
Ti         5.6738480028       11.3463238921        7.2122350345
Ti        13.2394518719        3.7811117505        7.2096016005
Ti         3.7811238571       13.2394565298        2.4054101564
Ti         5.6738351858        5.6738426161        4.8075089901
Ti        11.3462990004       11.3462911255       -0.0000089138
Ti        11.3462750449       13.2394884658        2.4048391276
Ti         5.6738493237        3.7811355215        7.2116602552
Ti         3.7811599414       11.3463300498       -0.0005704611
Ti        13.2394429330        5.6738201504        4.8095738217
Ti         5.6738480745       13.2394424440        4.8054572943
Ti        11.3463048211        3.7811617317        0.0005612554
Ti        13.2394847921       11.3462780410        7.2101737470
Ti         3.7811425577        5.6738403679        2.4033533182
Ti         3.7811530078        7.5651305688        0.0004027058
Ti        13.2394616896        9.4577867874        4.8091513693
Ti         7.5651129988        5.6738414039        2.4037401586
Ti         9.4577618995       11.3463063151        7.2118154373
Ti        13.2394503048        7.5651045652        7.2092291318
Ti         3.7811546176        9.4577559737        2.4037913094
Ti         9.4577638289        5.6738292515        4.8079398184
Ti         7.5651203785       11.3463375444       -0.0009495831
Ti        11.3463052203        9.4577736449        2.4032128844
Ti         5.6738375934        7.5651009388        7.2112803491
Ti         5.6738425007        9.4577684633        4.8070732569
Ti        11.3463335380        7.5651084501        0.0009538278
Ti         9.4577567206        3.7811299299        7.2112382605
Ti         7.5651099423       13.2394506049        2.4057862415
Ti         7.5651081207        3.7811606342       -0.0003871581
Ti         9.4577909966       13.2394673965        4.8058841924
Ti         7.5651181785        7.5651175540        0.0000050202
Ti         9.4577354889        9.4577612508        4.8074986911
Ti         7.5650883158        9.4577757330        2.4041567104
Ti         9.4577600197        7.5650795191        7.2108498934
O         0.0012312551        0.0024841648        1.9874337675
O         1.8835804444        1.8897242248        6.7930313789
O         0.0024544497        1.8833923872        4.3903093504
O         1.8896608951        0.0012066224        9.1975877666
O         1.8833844484        0.0024716906        5.2246790965
O         0.0012133570        1.8896488728        0.4174240273
O         1.8897073805        1.8835816589        2.8220054956
O         0.0025043254        0.0012527784        7.6276007117
O         0.0012278017        3.7815767651        1.9873580851
O         1.8833906037       13.2362912767        6.7940722101
O        11.3491041653        1.8835861476        4.3892246867
O         5.6727600553        0.0012053508        9.1989560349
O         1.8838172428        3.7815992836        5.2246742040
O         0.0012416867       13.2362699543        0.4163309891
O         5.6727825639        1.8838633230        2.8205177784
O        11.3491700274        0.0012329572        7.6287098546
O         3.7815762556        0.0012188523        7.6276801650
O        13.2362954581        1.8833904612        2.8209767473
O        13.2362687550        0.0011988908        9.1986880213
O         3.7815994622        1.8838152433        4.3903670375
O         1.8839203857        5.6727626728        6.7944816653
O         0.0012131641       11.3491690952        1.9863179430
O         0.0012457194        5.6727633320        0.4160720097
O         1.8835570709       11.3491120329        5.2257822133
O         0.0012222068        7.5662235794        1.9876586420
O         1.8838146286        9.4572988735        6.7941013035
O         7.5662186251        1.8839264212        4.3907187377
O         9.4573273656        0.0011960061        9.1985927358
O         1.8838792106        7.5662090566        5.2242759049
O         0.0012377666        9.4573298356        0.4164468299
O         9.4573086483        1.8837915211        2.8209306728
O         7.5662259209        0.0012250861        7.6273536727
O         3.7740317280        0.0024428258        1.9861326298
O        13.2371940370        1.8896367855        6.7938471483
O         0.0024189717        5.6701635920        4.3895960407
O         1.8897094871       11.3550755754        9.1968213164
O        13.2371922025        0.0024796660        5.2238331533
O         3.7740856272        1.8897770009        0.4185901175
O         1.8897856775        5.6701153018        2.8226128293
O         0.0024562342       11.3552633044        7.6284450501
O        11.3550860900        1.8897164525        0.4181987482
O         5.6700972488        0.0024155600        5.2254052109
O         5.6701352229        1.8897761766        6.7924117262
O        11.3552788064        0.0024625622        1.9866114180
O         1.8897766110        3.7740977941        9.1964087195
O         0.0024840583       13.2371843904        4.3912018621
O         0.0024347043        3.7740202824        7.6289094767
O         1.8896508958       13.2372026514        2.8211798819
O         3.7742182974        3.7816100897        1.9863804372
O        13.2371452495       13.2362753790        6.7949092474
O        11.3490474557        5.6701626801        4.3886008730
O         5.6727831903       11.3547491793        9.1982502107
O        13.2372441444        3.7815602352        5.2239140042
O         3.7739698637       13.2363246975        0.4176259544
O         5.6727694666        5.6701327483        2.8208458922
O        11.3491177800       11.3550935046        7.6294930655
O        11.3552510956       13.2362969531        0.4171589849
O         5.6701356944        3.7816085727        5.2250687395
O         3.7815964814       11.3548511862        7.6283849539
O        13.2363328687        5.6701093908        2.8216791489
O         5.6701174281       13.2363343574        6.7933548093
O        11.3548390018        3.7815948373        1.9866286416
O        13.2362944348       11.3552831622        9.1978289281
O         3.7816152081        5.6701487965        4.3899367299
O         5.6701054415        5.6727767473        6.7941741678
O        11.3550937543       11.3491179584        1.9855151874
O        13.2363164595        3.7739968969        9.1973894546
O         3.7815768458       13.2372330984        4.3911061363
O        11.3547591777        5.6727814858        0.4167785661
O         5.6700991093       11.3490546346        5.2264266602
O         3.7816269192        3.7742177281        7.6286493311
O        13.2362659706       13.2371631722        2.8200951229
O        13.2372314167       11.3491846615        5.2249651792
O         3.7742197925        5.6727902691        0.4169347947
O         5.6727593150       13.2372523136        2.8198336569
O        11.3490538289        3.7741069548        7.6299052541
O         3.7740969803       11.3490582056        1.9851208529
O        13.2372323599        5.6727490272        6.7951946233
O        11.3491677779       13.2372015713        4.3900487182
O         5.6727835894        3.7742037651        9.1980837314
O         3.7742238274        7.5662076121        1.9868172010
O        13.2372252205        9.4573338131        6.7948248780
O         7.5662072622        5.6701451674        4.3903860910
O         9.4573146897       11.3548424987        9.1978770071
O        13.2372461160        7.5662267159        5.2235953389
O         3.7741810228        9.4573032076        0.4174250492
O         9.4572935464        5.6701200711        2.8213804001
O         7.5662152919       11.3547596806        7.6280546619
O        11.3548284977        9.4573056976        0.4171452581
O         5.6701158825        7.5662125698        5.2246393852
O         5.6701442258        9.4572874608        6.7936370300
O        11.3547639343        7.5662209646        1.9869933600
O         9.4572912796        3.7741742807        9.1975786876
O         7.5662371951       13.2372310547        4.3914245340
O         7.5662083244        3.7742475213        7.6282485712
O         9.4573302679       13.2372373511        2.8201985103
O         7.5691474252        0.0024259400        1.9858848729
O         9.4648550392        1.8897715013        6.7926739529
O         0.0024481852        9.4649293441        4.3898947067
O         1.8897854279        7.5690923196        9.1961764071
O         9.4649394558        0.0024472333        5.2251146281
O         7.5691288744        1.8897944792        0.4188405388
O         1.8897768832        9.4648691995        2.8223486145
O         0.0024234229        7.5691800298        7.6291552846
O         7.5691285413        3.7816259235        1.9861911611
O         9.4649608463       13.2363244857        6.7936510463
O        11.3490376596        9.4648449668        4.3889072205
O         5.6727842436        7.5691146195        9.1979335038
O         9.4647367864        3.7816133807        5.2249179441
O         7.5691398998       13.2363382665        0.4178839336
O         5.6727822900        9.4646767882        2.8207281725
O        11.3490470147        7.5691756531        7.6301351139
O         3.7816182902        7.5691567512        7.6288140700
O        13.2363238796        9.4649634021        2.8213970772
O        13.2363342961        7.5691340394        9.1971002587
O         3.7816378860        9.4647540380        4.3901397475
O         9.4646937915        5.6727621674        6.7942955239
O         7.5691511262       11.3490546707        1.9848481649
O         7.5691202572        5.6727829025        0.4170972423
O         9.4648810494       11.3490667270        5.2261624777
O         7.5691493443        7.5662026757        1.9866400133
O         9.4647507313        9.4572705785        6.7938642778
O         7.5661988777        9.4646680199        4.3905059541
O         9.4572931452        7.5691267986        9.1974271277
O         9.4647485961        7.5661972676        5.2244604787
O         7.5691212406        9.4572903937        0.4176147040
O         9.4572703876        9.4647414195        2.8211504232
O         7.5662081715        7.5691683687        7.6283740684
     192
 i =        2, E =     -5771.3726083014
Ti         0.0009448810        0.0009341942       -0.0000007765
Ti         1.8889100924        1.8889098618        4.8075067787
Ti         0.0009104278        1.8888283209        2.4017367540
Ti         1.8888335536        0.0009073566        7.2133027059
Ti         0.0008977219        3.7776948127        0.0028968997
Ti         1.8888336236       13.2376508112        4.8054609720
Ti        11.3498141066        1.8889070613        2.4036866713
Ti         5.6722774941        0.0008458781        7.2156803054
Ti         1.8889975803        3.7777132055        7.2103706834
Ti         0.0009345438       13.2376348951        2.4037934078
Ti         5.6722935416        1.8889556770        4.8051196867
Ti        11.3498942743        0.0009117803       -0.0019704481
Ti         3.7776948921        0.0009057444       -0.0029049601
Ti        13.2376580024        1.8888262584        4.8095620646
Ti        13.2376299837        0.0009183004        7.2112414153
Ti         3.7777292687        1.8889993999        2.4046474700
Ti         1.8889657604        5.6722920961        4.8098881841
Ti         0.0009147541       11.3498933928        0.0019627339
Ti         0.0008482626        5.6722799868        2.3993399117
Ti         1.8889110728       11.3498139126        7.2113453109
Ti         0.0008589178        7.5668621638        0.0043689889
Ti         1.8889885627        9.4612233681        4.8083285577
Ti         7.5668458623        1.8889752902        2.4060981055
Ti         9.4612563793        0.0008852737        7.2140837695
Ti         1.8889730061        7.5668337993        7.2089219781
Ti         0.0008947873        9.4612528876        2.4009506499
Ti         9.4612236789        1.8889840046        4.8066960855
Ti         7.5668539003        0.0008628021       -0.0043835481
Ti         3.7777586579        3.7777609148       -0.0000071093
Ti        13.2376344120       13.2376343751        4.8075131546
Ti        11.3497645048        5.6722994797        2.4013072272
Ti         5.6722981794       11.3497631756        7.2137212754
Ti        13.2376789117        3.7776837692        7.2083502959
Ti         3.7776922664       13.2376851250        2.4066790434
Ti         5.6722770377        5.6722862958        4.8075048899
Ti        11.3498268094       11.3498284149       -0.0000075581
Ti        11.3498919717       13.2376619056        2.4057430558
Ti         5.6723073106        3.7776752199        7.2126325305
Ti         3.7777225047       11.3497472315       -0.0009613451
Ti        13.2377210619        5.6722686790        4.8119507242
Ti         5.6722757265       13.2377168253        4.8030672163
Ti        11.3497327831        3.7777250903        0.0009623001
Ti        13.2376621047       11.3498886703        7.2092753918
Ti         3.7776831397        5.6723133646        2.4023842081
Ti         3.7776915472        7.5668338639        0.0013465967
Ti        13.2376811215        9.4612435269        4.8103510422
Ti         7.5668445081        5.6722932312        2.4037228315
Ti         9.4612379368       11.3497299169        7.2121450161
Ti        13.2377162863        7.5668555558        7.2068658548
Ti         3.7777475327        9.4611994623        2.4038432665
Ti         9.4612568331        5.6723012680        4.8089699903
Ti         7.5668544416       11.3497788640       -0.0024162264
Ti        11.3497275511        9.4612352520        2.4028729254
Ti         5.6722873340        7.5668393421        7.2112994949
Ti         5.6722997482        9.4612454754        4.8060446630
Ti        11.3497621774        7.5668568960        0.0024159078
Ti         9.4611899681        3.7777332009        7.2111827460
Ti         7.5668621667       13.2377284174        2.4081569758
Ti         7.5668178269        3.7776960828       -0.0013443408
Ti         9.4612592404       13.2376727474        4.8046747788
Ti         7.5668508279        7.5668527711        0.0000023083
Ti         9.4611953401        9.4611770281        4.8075008204
Ti         7.5668209636        9.4612560985        2.4051726541
Ti         9.4612556674        7.5668215468        7.2098362015
O         0.0006003030        0.0006233602        1.9821835431
O         1.8861233299        1.8889063127        6.7867629467
O         0.0006774230        1.8862242147        4.3852175379
O         1.8888829845        0.0006259817        9.1912487856
O         1.8862242348        0.0006758553        5.2298091187
O         0.0006181157        1.8888704052        0.4237860586
O         1.8888986871        1.8861211933        2.8282543652
O         0.0006265155        0.0005954137        7.6328404577
O         0.0005858967        3.7778011939        1.9831174775
O         1.8862306121       13.2378801230        6.7889360446
O        11.3497962501        1.8861311502        4.3829281867
O         5.6714120721        0.0006048253        9.1954358253
O         1.8858437667        3.7778679811        5.2287982365
O         0.0006023011       13.2379314610        0.4216098241
O         5.6714444995        1.8858084136        2.8239538801
O        11.3498131410        0.0006264405        7.6351059633
O         3.7777982908        0.0005998970        7.6319012702
O        13.2378774481        1.8862245014        2.8260916776
O        13.2379321330        0.0006041290        9.1934157442
O         3.7778737185        1.8858663893        4.3862336991
O         1.8857880943        5.6714321131        6.7910459363
O         0.0006155774       11.3498189129        1.9799121645
O         0.0005809450        5.6714120187        0.4195995620
O         1.8861361425       11.3497949373        5.2320959379
O         0.0005936866        7.5677315379        1.9840983028
O         1.8858688102        9.4610586649        6.7898936617
O         7.5677119375        1.8857967596        4.3872556326
O         9.4611333875        0.0006084780        9.1943005349
O         1.8858134981        7.5677073945        5.2277597034
O         0.0005831215        9.4611327320        0.4207512511
O         9.4610584647        1.8858677409        2.8251204244
O         7.5677282352        0.0006074035        7.6309043103
O         3.7676363804        0.0007482424        1.9811542273
O        13.2379227686        1.8888667661        6.7874825050
O         0.0007496559        5.6639088318        4.3840265603
O         1.8888914628       11.3523752271        9.1905587820
O        13.2379465292        0.0006211338        5.2290862581
O         3.7677018160        1.8889476303        0.4247217028
O         1.8888937689        5.6638201166        2.8292576787
O         0.0006718458       11.3522735270        7.6335439186
O        11.3523762391        1.8888851210        0.4244611740
O         5.6638171707        0.0007485807        5.2309882907
O         5.6638738160        1.8888804761        6.7857584299
O        11.3522705019        0.0006754008        1.9814963426
O         1.8889503383        3.7677073954        9.1902855546
O         0.0006272238       13.2379571097        4.3859438068
O         0.0007455794        3.7676359140        7.6338696152
O         1.8888727726       13.2379255390        2.8275333755
O         3.7676487450        3.7779518410        1.9824205456
O        13.2379577428       13.2379397118        6.7896392092
O        11.3498239433        5.6639024585        4.3819083474
O         5.6714313141       11.3527076691        9.1948372563
O        13.2379301227        3.7777915795        5.2281598857
O         3.7676327704       13.2378116511        0.4226216854
O         5.6714193856        5.6636902951        2.8242754110
O        11.3498085156       11.3523615816        7.6358032791
O        11.3522648620       13.2378816181        0.4222925205
O         5.6637618136        3.7779196088        5.2293262253
O         3.7778640492       11.3526418593        7.6325170139
O        13.2378138805        5.6638125929        2.8272616089
O         5.6638540099       13.2378176982        6.7877576210
O        11.3526381951        3.7778695541        1.9825066307
O        13.2378798836       11.3522511436        9.1927129044
O         3.7779226302        5.6637794566        4.3856872582
O         5.6636552509        5.6714307250        6.7907406230
O        11.3523646467       11.3497980946        1.9792111220
O        13.2378135348        3.7676381160        9.1924075627
O         3.7777910117       13.2379292780        4.3868726877
O        11.3527014459        5.6714423461        0.4201901327
O         5.6638291664       11.3498205729        5.2331192225
O         3.7779706482        3.7676363069        7.6326057198
O        13.2379289358       13.2379584145        2.8253672797
O        13.2379229967       11.3498227538        5.2313700553
O         3.7676330117        5.6714638257        0.4202118563
O         5.6714181051       13.2378994339        2.8233556296
O        11.3497598840        3.7677309902        7.6360813127
O         3.7677475257       11.3497705950        1.9789478232
O        13.2379119527        5.6714026881        6.7916604493
O        11.3498199435       13.2379333842        4.3836489502
O         5.6714618625        3.7676212071        9.1948176821
O         3.7676292833        7.5676917180        1.9835039083
O        13.2379327699        9.4611426555        6.7905144688
O         7.5677016948        5.6637173143        4.3869233299
O         9.4610714335       11.3526367871        9.1936732914
O        13.2379176018        7.5677277308        5.2271664856
O         3.7676425597        9.4609706720        0.4214518543
O         9.4610088621        5.6637204497        2.8257063257
O         7.5677197118       11.3527076998        7.6314979627
O        11.3526551924        9.4610733926        0.4213463093
O         5.6636625303        7.5676987225        5.2281097004
O         5.6637869749        9.4610132038        6.7893117180
O        11.3527090694        7.5677226907        1.9835270360
O         9.4609778824        3.7676376444        9.1935599983
O         7.5677322046       13.2379087829        4.3878707356
O         7.5676732490        3.7676403223        7.6315391999
O         9.4611384403       13.2379313092        2.8244988735
O         7.5759379327        0.0007500754        1.9803077522
O         9.4708417979        1.8889410481        6.7865544216
O         0.0007431087        9.4709113205        4.3849506361
O         1.8888940488        7.5758410485        9.1895412549
O         9.4709173462        0.0007403649        5.2300794735
O         7.5759059186        1.8888896287        0.4254792476
O         1.8889504555        9.4708472295        2.8284676808
O         0.0007486980        7.5759834283        7.6347096238
O         7.5760242492        3.7779366163        1.9819478852
O         9.4709159310       13.2378221040        6.7886732933
O        11.3497511491        9.4708436141        4.3827315366
O         5.6714328182        7.5760621597        9.1945091434
O         9.4709276794        3.7779507999        5.2288572567
O         7.5759125365       13.2378163239        0.4234770579
O         5.6714652496        9.4709373029        2.8239747446
O        11.3498154463        7.5759537102        7.6368303124
O         3.7779342513        7.5760783919        7.6330565945
O        13.2378135587        9.4709210627        2.8263636022
O        13.2378133391        7.5758973318        9.1915252722
O         3.7779638817        9.4709276119        4.3861893978
O         9.4709272419        5.6714589926        6.7910472009
O         7.5759180084       11.3498218047        1.9781646438
O         7.5760761215        5.6714310790        0.4205207653
O         9.4708220556       11.3497495183        5.2323165011
O         7.5761162547        7.5676951226        1.9831625598
O         9.4709001295        9.4609709205        6.7898321736
O         7.5676822341        9.4709398192        4.3872328662
O         9.4610053507        7.5759834279        9.1930935003
O         9.4709289131        7.5676628924        5.2277642819
O         7.5759865722        9.4610068907        0.4219421340
O         9.4609659350        9.4709392477        2.8251842423
O         7.5677120436        7.5761369092        7.6318379308
     192
 i =        3, E =     -5771.3728772123
Ti         0.0002986482        0.0002984549        0.0000036974
Ti         1.8888901428        1.8888840042        4.8075055984
Ti         0.0003055085        1.8888952041        2.4030475212
Ti         1.8888977309        0.0002965708        7.2119861439
Ti         0.0003220009        3.7757005862        0.0024706246
Ti         1.8889030703       13.2382610278        4.8067867552
Ti        11.3497972484        1.8888872588        2.4037100395
Ti         5.6708818581        0.0002843580        7.2153607417
Ti         1.8888914574        3.7756817873        7.2094488275
Ti         0.0003003608       13.2382762068        2.4037769866
Ti         5.6708737359        1.8888025714        4.8040542314
Ti        11.3497853197        0.0003105282       -0.0006752442
Ti         3.7756982179        0.0003330176       -0.0024713452
Ti        13.2382648801        1.8888997886        4.8082350773
Ti        13.2382742760        0.0002898058        7.2112497746
Ti         3.7756957052        1.8889000277        2.4055666027
Ti         1.8888043485        5.6708811198        4.8109592318
Ti         0.0003092156       11.3497890244        0.0006745815
Ti         0.0002810832        5.6708785127        2.3996506638
Ti         1.8888976173       11.3497949053        7.2113187788
Ti         0.0002973311        7.5683488341        0.0040264241
Ti         1.8888880530        9.4631984261        4.8092328343
Ti         7.5683608055        1.8888170139        2.4071325266
Ti         9.4631927729        0.0003085636        7.2136376101
Ti         1.8888228499        7.5683576559        7.2078859821
Ti         0.0003168148        9.4631920251        2.4013922187
Ti         9.4631964999        1.8888845051        4.8057953708
Ti         7.5683470754        0.0003029688       -0.0040313704
Ti         3.7757237411        3.7757277107       -0.0000037508
Ti        13.2382789797       13.2382767225        4.8075126458
Ti        11.3498790051        5.6708790721        2.4002586297
Ti         5.6708797234       11.3498744901        7.2147605341
Ti        13.2382469985        3.7756966977        7.2087899581
Ti         3.7756995234       13.2382481224        2.4062375772
Ti         5.6708127007        5.6708240646        4.8075095628
Ti        11.3498017740       11.3498028255       -0.0000028277
Ti        11.3497855500       13.2382711858        2.4044459513
Ti         5.6708619986        3.7756025220        7.2127871528
Ti         3.7756977014       11.3498061169       -0.0018539234
Ti        13.2382757913        5.6708805279        4.8116231276
Ti         5.6708761235       13.2382700153        4.8033987624
Ti        11.3497940454        3.7756990343        0.0018611745
Ti        13.2382674659       11.3497719656        7.2105758677
Ti         3.7756047028        5.6708725104        2.4022283555
Ti         3.7756212710        7.5683682587        0.0014689478
Ti        13.2382475175        9.4631793071        4.8098944040
Ti         7.5684113660        5.6708274292        2.4036947231
Ti         9.4632001051       11.3497798401        7.2130147275
Ti        13.2382693310        7.5683476936        7.2072246144
Ti         3.7757112884        9.4631687127        2.4038595064
Ti         9.4632737587        5.6708710247        4.8091490688
Ti         7.5683636876       11.3498856465       -0.0034266931
Ti        11.3497941286        9.4632077500        2.4019972488
Ti         5.6708216113        7.5684091324        7.2113198891
Ti         5.6708564776        9.4632706003        4.8058770602
Ti        11.3498707600        7.5683660167        0.0034261921
Ti         9.4631674080        3.7757098685        7.2111647624
Ti         7.5683510591       13.2382805425        2.4077957968
Ti         7.5683534023        3.7756242941       -0.0014690458
Ti         9.4631875704       13.2382427034        4.8051297278
Ti         7.5684102377        7.5684102694        0.0000023678
Ti         9.4631714422        9.4631588928        4.8075075633
Ti         7.5683682788        9.4632712941        2.4053228080
Ti         9.4632631595        7.5683678728        7.2096911031
O         0.0013314241        0.0016419902        1.9812146602
O         1.8846893534        1.8875044534        6.7859922104
O         0.0016288095        1.8846262803        4.3857156485
O         1.8874891468        0.0013523395        9.1890358725
O         1.8846307083        0.0016254416        5.2293177711
O         0.0013546293        1.8874880649        0.4259936028
O         1.8875059132        1.8846866469        2.8290265805
O         0.0016427793        0.0013224857        7.6338160824
O         0.0013292889        3.7770960803        1.9804371603
O         1.8846244339       13.2369271733        6.7894739581
O        11.3511625768        1.8846806839        4.3822540414
O         5.6711923975        0.0012710023        9.1941059770
O         1.8846355637        3.7770994811        5.2299426457
O         0.0013268730       13.2369136020        0.4225425295
O         5.6712080020        1.8845762277        2.8237372300
O        11.3511784496        0.0013382180        7.6372239446
O         3.7770980370        0.0013307581        7.6345835522
O        13.2369287051        1.8846243920        2.8255518229
O        13.2369096969        0.0013348437        9.1924761044
O         3.7771028613        1.8846411328        4.3850730283
O         1.8845644552        5.6712054314        6.7912777559
O         0.0013505660       11.3511816830        1.9778007409