     192
 i =        1, E =     -5769.0673851818
Ti         0.0018066414       -0.0017905667       -0.0057136229
Ti         1.8929579347        1.8811175358        4.8337435488
Ti        -0.0048129707        1.8965968664        2.3759967080
Ti         1.8964845568       -0.0029623752        7.2122893569
Ti        -0.0104974027        3.7836306150        0.0027682685
Ti         1.8913745015       13.2385019962        4.8005713002
Ti        11.3489202210        1.8886318426        2.4047738576
Ti         5.6739808328       -0.0013774144        7.2095590166
Ti         1.9035950418        3.7843730935        7.2312323888
Ti         0.0029777597       13.2350207225        2.4009460760
Ti         5.6710576731        1.8849260762        4.8258579855
Ti        11.3401438499        0.0025756934        0.0051955077
Ti         3.7851670908       -0.0048052099        0.0014460228
Ti        13.2407416327        1.8953670322        4.8106409217
Ti        13.2520421340        0.0002159776        7.2295719307
Ti         3.7821923709        1.8885803084        2.3847921780
Ti         1.8860283087        5.6777895045        4.8017961884
Ti        -0.0135852298       11.3445711861        0.0006591632
Ti         0.0013827797        5.6765247750        2.4061084642
Ti         1.8979724635       11.3454512466        7.2097470082
Ti        -0.0080707439        7.5622963861        0.0062283968
Ti         1.8972490394        9.4642249166        4.8018555212
Ti         7.5706647281        1.8881319768        2.3955169023
Ti         9.4575717620        0.0010482680        7.2162581335
Ti         1.8921785404        7.5638098289        7.2113361296
Ti        -0.0100458174        9.4568727120        2.3963379739
Ti         9.4678173826        1.8901218125        4.8174617510
Ti         7.5638739837       -0.0089109255       -0.0070613139
Ti         3.7729347437        3.7816492788       -0.0061473686
Ti        13.2394611162       13.2315911152        4.8043923993
Ti        11.3446535016        5.6691360006        2.4070180605
Ti         5.6781762719       11.3469710887        7.2187807191
Ti        13.2383814892        3.7930691803        7.2151013437
Ti         3.7853832074       13.2434272064        2.4050759656
Ti         5.6822669533        5.6713188940        4.8056358062
Ti        11.3427875612       11.3409467266        0.0040685422
Ti        11.3463662454       13.2403913195        2.3927390043
Ti         5.6768042957        3.7867094085        7.2027997341
Ti         3.7801788488       11.3456478437       -0.0031762637
Ti        13.2385806439        5.6720708016        4.8107298988
Ti         5.6676579181       13.2357463572        4.8058536002
Ti        11.3525104594        3.7899151414       -0.0095348167
Ti        13.2541413249       11.3476542782        7.2103463951
Ti         3.7840868062        5.6767941911        2.3962213980
Ti         3.7794776473        7.5660284490       -0.0020367930
Ti        13.2432516240        9.4546224918        4.8065448264
Ti         7.5616488819        5.6650876433        2.4028201207
Ti         9.4574299210       11.3478859077        7.2204455745
Ti        13.2375993981        7.5598906877        7.2108436598
Ti         3.7708921980        9.4606362236        2.4130405326
Ti         9.4646283108        5.6737337589        4.8025641115
Ti         7.5679592226       11.3549456897       -0.0092485510
Ti        11.3429889541        9.4587831238        2.4047461047
Ti         5.6731004982        7.5697958133        7.2200202761
Ti         5.6750086292        9.4626124300        4.8026476141
Ti        11.3518884622        7.5622393655        0.0011253722
Ti         9.4533360090        3.7869062046        7.2111018978
Ti         7.5735254982       13.2411179183        2.4066309508
Ti         7.5718364824        3.7879448926       -0.0046327030
Ti         9.4369412762       13.2337651542        4.7998141440
Ti         7.5711969691        7.5798878090        0.0031991098
Ti         9.4690571135        9.4534756036        4.8066844848
Ti         7.5698175788        9.4548462444        2.3929890347
Ti         9.4548128081        7.5732286840        7.1996472491
O        -0.0041967410        0.0001176821        1.9991899064
O         1.8820577864        1.8913416699        6.8189309626
O         0.0067665531        1.8871495551        4.3825918522
O         1.8911092055       -0.0053749520        9.2085174327
O         1.8768161585       -0.0012955848        5.2188802700
O         0.0004333211        1.8861524622        0.3971182282
O         1.8849778976        1.8803862804        2.8305218534
O         0.0070922300       -0.0042126882        7.6150019822
O         0.0045274796        3.7798744928        2.0003622701
O         1.8730237381       13.2379478976        6.7984776566
O        11.3520339757        1.8850712011        4.3993244219
O         5.6695429186        0.0054512983        9.2025161827
O         1.8915818624        3.7791085308        5.2230813491
O         0.0072088879       13.2357306854        0.4031929462
O         5.6759668772        1.8933244030        2.8273783669
O        11.3518564863       -0.0046051209        7.6165291195
O         3.7810955217        0.0056900758        7.6138683381
O        13.2398484624        1.8832771455        2.8200497457
O        13.2317809833       -0.0045762923        9.2178454648
O         3.7783160765        1.8891422484        4.3868961619
O         1.8750771287        5.6686415920        6.7980814708
O         0.0120607021       11.3466008384        1.9937792390
O         0.0103253404        5.6719121460        0.4146095942
O         1.8798938980       11.3505321637        5.2083652466
O         0.0053061526        7.5685740391        1.9938128041
O         1.8896665581        9.4568267168        6.7913169101
O         7.5693357412        1.8826505884        4.4022538463
O         9.4592095686        0.0084248436        9.2056881420
O         1.8817736830        7.5729907260        5.2165068440
O         0.0128207680        9.4574757342        0.4073132360
O         9.4567629385        1.8895855503        2.8216769857
O         7.5674402320        0.0102371257        7.6130418625
O         3.7664561955        0.0060001421        1.9995003838
O        13.2299400250        1.8898963307        6.8121264957
O        -0.0029017852        5.6699997989        4.4030321382
O         1.8820427705       11.3545725137        9.2098921778
O        13.2370355415        0.0035668424        5.2228618581
O         3.7813999168        1.8918360492        0.3956469452
O         1.8933700287        5.6697938644        2.8161901644
O         0.0110745321       11.3636327977        7.6224424199
O        11.3493907877        1.8952138321        0.4110411973
O         5.6757621054       -0.0049043802        5.2132212861
O         5.6669941027        1.8910677029        6.8126666223
O        11.3555361472       -0.0002284799        1.9998828755
O         1.8789248762        3.7777938521        9.2130746087
O         0.0027963822       13.2390646827        4.3968889289
O         0.0056990685        3.7637034767        7.6111699341
O         1.8889688121       13.2391714352        2.8056269494
O         3.7667880571        3.7807326716        1.9876790989
O        13.2277535848       13.2394048409        6.7986372753
O        11.3568317320        5.6654935891        4.3990839979
O         5.6713130577       11.3574841115        9.2146339227
O        13.2357243372        3.7808380644        5.2230453021
O         3.7724158136       13.2353654521        0.4045657824
O         5.6675914798        5.6711702318        2.8129175117
O        11.3541637762       11.3552860079        7.6121741059
O        11.3626259865       13.2343094878        0.3974488424
O         5.6752934660        3.7786380846        5.2064073700
O         3.7845771072       11.3592205806        7.6199365722
O        13.2369155077        5.6678029630        2.8146952411
O         5.6568905298       13.2352352871        6.8081572291
O        11.3573555253        3.7773795561        1.9952090436
O        13.2281922522       11.3622063599        9.2056187887
O         3.7783633077        5.6725933767        4.4060994649
O         5.6642019271        5.6744630181        6.7997289159
O        11.3686282499       11.3493970709        2.0041247665
O        13.2367573879        3.7660942045        9.2037817290
O         3.7769091929       13.2213309021        4.4028397017
O        11.3503483522        5.6760700255        0.4210525427
O         5.6662483398       11.3509292354        5.2290443688
O         3.7852512340        3.7687237377        7.6156955793
O        13.2342075122       13.2405211491        2.8052691993
O        13.2355294953       11.3417544742        5.2133561633
O         3.7764904210        5.6701096602        0.3988383089
O         5.6763080381       13.2383073271        2.8069549310
O        11.3455863985        3.7682135225        7.6074718866
O         3.7857518353       11.3519266624        1.9919958068
O        13.2358616327        5.6744032777        6.8005007262
O        11.3459117469       13.2490076459        4.4011106831
O         5.6726298444        3.7752253252        9.2042271594
O         3.7787654445        7.5696529121        1.9932799446
O        13.2286656615        9.4566580134        6.8084393086
O         7.5709734356        5.6666661501        4.4023329422
O         9.4590476951       11.3505000034        9.2082980365
O        13.2455270907        7.5678721747        5.2170594962
O         3.7577609265        9.4590412001        0.4164121821
O         9.4575723466        5.6742294071        2.8091030839
O         7.5677943421       11.3449084991        7.6097719004
O        11.3465463959        9.4551745937        0.4146774116
O         5.6644464886        7.5631701677        5.2101544911
O         5.6742067381        9.4580340724        6.7904499992
O        11.3477694216        7.5679090136        1.9972875330
O         9.4601935932        3.7668633284        9.2079198096
O         7.5576530882       13.2426977979        4.4003764134
O         7.5641629744        3.7629900709        7.6215909890
O         9.4643927548       13.2447119543        2.8134728965
O         7.5627779535        0.0023972028        1.9943393754
O         9.4601013664        1.8904663237        6.8097243863
O         0.0051302203        9.4651904930        4.3920042567
O         1.8829449132        7.5741993417        9.2081746293
O         9.4655223577       -0.0042844138        5.2142410800
O         7.5758472932        1.8887599245        0.4172951656
O         1.8820404274        9.4633517998        2.8061386809
O         0.0020397142        7.5755996398        7.6239902823
O         7.5633905091        3.7780249582        1.9932973042
O         9.4863051711       13.2368784149        6.7961442134
O        11.3561084551        9.4701058594        4.3995091792
O         5.6734395340        7.5682022015        9.2199114869
O         9.4545284159        3.7798743160        5.2162897322
O         7.5630221019       13.2352770524        0.4216267751
O         5.6761543655        9.4662759443        2.8044776394
O        11.3474650697        7.5695947359        7.6241837767
O         3.7818822951        7.5628952195        7.6225750545
O        13.2327005889        9.4743790903        2.8131745460
O        13.2384264915        7.5691319085        9.2048310697
O         3.7847214797        9.4614130440        4.4022775597
O         9.4700040386        5.6733557775        6.8034102313
O         7.5634724054       11.3505911027        1.9913006414
O         7.5698220210        5.6797084887        0.4046060577
O         9.4668457279       11.3481791448        5.2157974734
O         7.5687270645        7.5608403319        1.9994380882
O         9.4608738195        9.4637855394        6.8049426624
O         7.5707947456        9.4653309475        4.4026314499
O         9.4633540679        7.5647291946        9.2023932092
O         9.4602764868        7.5638116565        5.2069636610
O         7.5582441865        9.4688298937        0.4057120739
O         9.4583741221        9.4600501448        2.8136735545
O         7.5641952906        7.5525194873        7.6282882421
     192
 i =        2, E =     -5769.0723521331
Ti         0.0089701447       -0.0017962878       -0.0110389334
Ti         1.8917703566        1.8704981844        4.8490076868
Ti        -0.0060469892        1.8972652636        2.3589573105
Ti         1.8959993386       -0.0074250550        7.2136383477
Ti        -0.0143738950        3.7837289629        0.0041926837
Ti         1.8846939350       13.2380158188        4.7962152739
Ti        11.3526119226        1.8851901642        2.4079367618
Ti         5.6726367097       -0.0000572565        7.2111312729
Ti         1.9082638524        3.7826731646        7.2488109448
Ti         0.0101766623       13.2323173871        2.3986441000
Ti         5.6696890021        1.8801127728        4.8342937325
Ti        11.3380170235        0.0050161796        0.0078605170
Ti         3.7878930383       -0.0066954301        0.0004359083
Ti        13.2395569146        1.8947571518        4.8083628169
Ti        13.2611823848       -0.0007025004        7.2440191367
Ti         3.7834304424        1.8821332843        2.3766773243
Ti         1.8836427710        5.6801710096        4.7993509976
Ti        -0.0173216107       11.3440288621       -0.0001717032
Ti         0.0039604115        5.6759425204        2.4045975057
Ti         1.8973627022       11.3463939657        7.2115048958
Ti        -0.0116448834        7.5612565322        0.0114639095
Ti         1.8998268001        9.4725864923        4.7998581896
Ti         7.5780573247        1.8830492905        2.3876417718
Ti         9.4610188613        0.0029818910        7.2218047152
Ti         1.8886779058        7.5660269547        7.2088167675
Ti        -0.0129894990        9.4606508456        2.3901624389
Ti         9.4797534846        1.8881015479        4.8219874948
Ti         7.5636627749       -0.0118699130       -0.0128827131
Ti         3.7691809812        3.7793993249       -0.0077460816
Ti        13.2366221191       13.2262719821        4.8055028392
Ti        11.3444943643        5.6641477204        2.4074572165
Ti         5.6819961291       11.3491724113        7.2204931433
Ti        13.2339956760        3.7999298036        7.2143248161
Ti         3.7875511547       13.2451994310        2.4050164557
Ti         5.6901420894        5.6692512506        4.8048695881
Ti        11.3445779556       11.3386715156        0.0072225896
Ti        11.3482878354       13.2426707593        2.3845908315
Ti         5.6780033714        3.7874190782        7.1993432251
Ti         3.7805831639       11.3480310932       -0.0020405484
Ti        13.2373690489        5.6688897679        4.8143989145
Ti         5.6592389325       13.2317986024        4.8055832914
Ti        11.3573034207        3.7923168418       -0.0135777532
Ti        13.2606079574       11.3491933288        7.2086139100
Ti         3.7832424078        5.6783985485        2.3873279443
Ti         3.7781146796        7.5695881135       -0.0023270476
Ti        13.2428460182        9.4571048144        4.8032537315
Ti         7.5594236317        5.6571006679        2.3995142518
Ti         9.4599499838       11.3472225450        7.2264726181
Ti        13.2348428672        7.5589706173        7.2093019164
Ti         3.7613998335        9.4641101645        2.4170019911
Ti         9.4688799303        5.6726248608        4.7985441625
Ti         7.5699497067       11.3636761857       -0.0106486535
Ti        11.3428094758        9.4640195125        2.4041909326
Ti         5.6700476491        7.5728295095        7.2269879120
Ti         5.6763463818        9.4673157442        4.8003746134
Ti        11.3551883053        7.5602262529        0.0018234162
Ti         9.4553783676        3.7894369099        7.2072460945
Ti         7.5782616950       13.2419679609        2.4050516891
Ti         7.5796324471        3.7926555127       -0.0107535313
Ti         9.4214541101       13.2318853439        4.7944694196
Ti         7.5748418015        7.5909647312        0.0024927961
Ti         9.4812009063        9.4534447009        4.8032803344
Ti         7.5747039083        9.4547018655        2.3816005424
Ti         9.4551484008        7.5785678877        7.1926779114
O        -0.0039590327       -0.0007502494        2.0038912465
O         1.8826540880        1.8868169124        6.8204880124
O         0.0084314260        1.8887239307        4.3837472686
O         1.8927017361       -0.0057986659        9.2126751325
O         1.8802492104        0.0003263717        5.2192644676
O        -0.0017405370        1.8829117287        0.4013585214
O         1.8827965293        1.8802178685        2.8321363221
O         0.0040402636       -0.0048269739        7.6110928537
O         0.0019302311        3.7694251898        2.0042043484
O         1.8754159634       13.2378990019        6.7996525582
O        11.3536745508        1.8865853824        4.4051156416
O         5.6650262113        0.0022838396        9.2045474083
O         1.8919243768        3.7729101502        5.2204234050
O         0.0044246343       13.2347661745        0.3972871091
O         5.6792076650        1.8928359146        2.8297130240
O        11.3536103436       -0.0010569606        7.6112177283
O         3.7754891903        0.0031242549        7.6033019147
O        13.2431254179        1.8857828489        2.8190367171
O        13.2324379884       -0.0036909062        9.2208774033
O         3.7731790912        1.8838873394        4.3916455319
O         1.8720420649        5.6623712512        6.8033126344
O         0.0124269322       11.3483329905        1.9933905195
O         0.0082402553        5.6692781521        0.4155620729
O         1.8809218807       11.3526746331        5.2001936020
O         0.0003676217        7.5726491976        1.9946937219
O         1.8927084764        9.4626266160        6.7849928556
O         7.5748834666        1.8773754066        4.4134312138
O         9.4646390502        0.0053733891        9.2080973031
O         1.8799498350        7.5799115002        5.2115966218
O         0.0095192185        9.4612250246        0.4046508892
O         9.4586995752        1.8893869037        2.8214854514
O         7.5711539302        0.0074332802        7.6085779744
O         3.7566544987        0.0091534057        2.0024327340
O        13.2331047332        1.8847353603        6.8179218250
O        -0.0038839950        5.6604361446        4.4071844749
O         1.8820259576       11.3552167111        9.2145847440
O        13.2406690955        0.0072841256        5.2212617558
O         3.7785809393        1.8923093958        0.3955418660
O         1.8925378702        5.6622975348        2.8214074925
O         0.0093548226       11.3615677051        7.6194923477
O        11.3493286132        1.8945591747        0.4150007188
O         5.6777163088       -0.0085542995        5.2109630380
O         5.6509242358        1.8894875236        6.8098093670
O        11.3535035053       -0.0006270530        2.0027553676
O         1.8766230636        3.7724001659        9.2141386716
O         0.0002158471       13.2373435098        4.3966911988
O         0.0020457575        3.7537132347        7.6020342128
O         1.8880597628       13.2405078190        2.8008490892
O         3.7517567660        3.7759988572        1.9862186645
O        13.2303593446       13.2382306983        6.7996491941
O        11.3616674548        5.6480137515        4.4017481075
O         5.6689691659       11.3587027451        9.2181573168
O        13.2369673707        3.7759241702        5.2230759982
O         3.7629936546       13.2388393427        0.3971559000
O         5.6592370515        5.6641826671        2.8096488986
O        11.3546856363       11.3534670256        7.6051761058
O        11.3570409609       13.2329104893        0.3930107430
O         5.6804103172        3.7758395900        5.2020440149
O         3.7830280117       11.3587965401        7.6210648589
O        13.2386329390        5.6547691941        2.8130160547
O         5.6299960395       13.2360555457        6.8181070398
O        11.3598972406        3.7722097872        2.0044174443
O        13.2300711523       11.3581088687        9.2074396950
O         3.7737630028        5.6707516779        4.4144695212
O         5.6464415430        5.6699455618        6.8020568542
O        11.3685965320       11.3529449147        2.0114849035
O        13.2378998609        3.7615546083        9.2027970264
O         3.7667736311       13.2137558732        4.4069337869
O        11.3533023108        5.6761409387        0.4272831978
O         5.6524428641       11.3535182555        5.2343163111
O         3.7788465048        3.7600490690        7.6115354412
O        13.2345193843       13.2382774235        2.8013944444
O        13.2404714740       11.3392358227        5.2074479913
O         3.7675588364        5.6668170197        0.3885775351
O         5.6748833715       13.2404776123        2.8029526890
O        11.3459744078        3.7627478869        7.6053116589
O         3.7908826761       11.3547960494        1.9961428609
O        13.2362540686        5.6748029364        6.8055581457
O        11.3488995222       13.2480433432        4.4060603234
O         5.6740614980        3.7697937821        9.2076859500
O         3.7731538614        7.5716943414        1.9961202605
O        13.2302086858        9.4617902214        6.8150408341
O         7.5740567864        5.6512142847        4.4058395279
O         9.4625225173       11.3526339442        9.2093175156
O        13.2477461602        7.5726587159        5.2141753117
O         3.7424254596        9.4654162909        0.4143840930
O         9.4628978340        5.6733452079        2.8056844608
O         7.5717578431       11.3464859410        7.6063971108
O        11.3453760442        9.4579866012        0.4162347840
O         5.6481793797        7.5586594332        5.2001380207
O         5.6769162912        9.4581405036        6.7843784448
O        11.3492855885        7.5731159824        2.0029023848
O         9.4630557989        3.7594105269        9.2100257558
O         7.5528804537       13.2407177621        4.4032195377
O         7.5661133751        3.7544045588        7.6191735986
O         9.4687328114       13.2432581653        2.8119363499
O         7.5581470300        0.0019962539        1.9990111991
O         9.4672636468        1.8873469855        6.8112763971
O         0.0045230618        9.4746121731        4.3904793384
O         1.8800521263        7.5895184992        9.2095187731
O         9.4728208192       -0.0049485335        5.2097556493
O         7.5977855224        1.8880425991        0.4290372608
O         1.8828295973        9.4731968658        2.8011051471
O        -0.0000268004        7.5947470748        7.6225979218
O         7.5589528243        3.7762366079        1.9970476421
O         9.4936020935       13.2355385318        6.7981295149
O        11.3588657577        9.4774685793        4.4034160139
O         5.6708973821        7.5804051419        9.2295358058
O         9.4532829607        3.7751649657        5.2122111640
O         7.5600510267       13.2381805760        0.4255019752
O         5.6814189681        9.4771985105        2.7987063057
O        11.3492398123        7.5784247530        7.6251980473
O         3.7790940571        7.5574957809        7.6249536830
O        13.2345828987        9.4825956570        2.8078989883
O        13.2404709322        7.5759094664        9.2091381308
O         3.7844448350        9.4700648569        4.4016043852
O         9.4808099101        5.6701144784        6.8086751768
O         7.5635947778       11.3535360576        1.9979042513
O         7.5825562018        5.6815853055        0.3978807278
O         9.4752144630       11.3526472754        5.2058665588
O         7.5775009393        7.5601758139        2.0025392996
O         9.4664654198        9.4664969293        6.8092996277
O         7.5767042799        9.4756986299        4.4110559059
O         9.4675287554        7.5673814643        9.2081536711
O         9.4688577188        7.5645084728        5.2028839447
O         7.5441000758        9.4764890492        0.4017222788
O         9.4634794924        9.4665640216        2.8095551220
O         7.5622780715        7.5258768922        7.6309837417
     192
 i =        3, E =     -5769.0743110527
Ti         0.0123621436       -0.0030760678       -0.0124461780
Ti         1.8935110149        1.8667727499        4.8536096065
Ti        -0.0057296444        1.8979679241        2.3531070134
Ti         1.8991738779       -0.0101721233        7.2111833157
Ti        -0.0164208107        3.7840559944        0.0047851013
Ti         1.8819117841       13.2353892822        4.7952037078
Ti        11.3548515103        1.8852328038        2.4062314875
Ti         5.6707874328       -0.0015844516        7.2109758625
Ti         1.9103068518        3.7830058922        7.2554518263
Ti         0.0124568186       13.2319914407        2.3988211581
Ti         5.6718315288        1.8784849333        4.8361155364
Ti        11.3370794807        0.0061856289        0.0092465087
Ti         3.7874786053       -0.0100880011        0.0018988345
Ti        13.2404677881        1.8916610221        4.8065355892
Ti        13.2663873918        0.0001533086        7.2497295506
Ti         3.7839197590        1.8788305566        2.3762583518
Ti         1.8854144777        5.6804855408        4.7973491283
Ti        -0.0191255942       11.3446674170       -0.0011383427
Ti         0.0041048618        5.6758759484        2.4035940903
Ti         1.8971427432       11.3471124528        7.2147679552
Ti        -0.0137768138        7.5626882854        0.0130222610
Ti         1.9015156618        9.4758061046        4.8010158084
Ti         7.5824490744        1.8804847701        2.3823300866
Ti         9.4647754518        0.0034723311        7.2244235161
Ti         1.8855175933        7.5693609670        7.2082229829
Ti        -0.0157304213        9.4637946887        2.3888449269
Ti         9.4851964261        1.8852486289        4.8233556966
Ti         7.5635414073       -0.0124615881       -0.0142061855
Ti         3.7695036334        3.7777979709       -0.0046337824
Ti        13.2344831600       13.2240547140        4.8061013844
Ti        11.3445446794        5.6613485899        2.4072643322
Ti         5.6826873480       11.3499226953        7.2201105507
Ti        13.2343934173        3.8022605992        7.2134087618
Ti         3.7865503420       13.2440999541        2.4061738375
Ti         5.6924037346        5.6683912984        4.8048564871
Ti        11.3455938653       11.3393950878        0.0083409705
Ti        11.3483499810       13.2429444132        2.3816835545
Ti         5.6782280032        3.7862840507        7.1988010175
Ti         3.7788468190       11.3478620587       -0.0029280807
Ti        13.2371708126        5.6666940794        4.8140320687
Ti         5.6548932118       13.2288137327        4.8049218999
Ti        11.3580388595        3.7918687626       -0.0163459131
Ti        13.2632409521       11.3502046153        7.2091237568
Ti         3.7817529369        5.6793717552        2.3832406703
Ti         3.7758233771        7.5732505284       -0.0034114541
Ti        13.2441410762        9.4602881400        4.8001556688
Ti         7.5588476435        5.6533923217        2.3968498522
Ti         9.4640488591       11.3472288891        7.2321830834
Ti        13.2340471303        7.5623815393        7.2075300469
Ti         3.7565330227        9.4665942591        2.4185192549
Ti         9.4685147447        5.6703322682        4.7953799325
Ti         7.5690320467       11.3661843245       -0.0113185746
Ti        11.3422760111        9.4661796836        2.4003467577
Ti         5.6672760398        7.5722089915        7.2305399131
Ti         5.6785836238        9.4673359229        4.7992360249
Ti        11.3546641072        7.5598124096        0.0018397690
Ti         9.4588945221        3.7907540823        7.2034757228
Ti         7.5766698407       13.2415450751        2.4036292197
Ti         7.5840814733        3.7942329255       -0.0152897697
Ti         9.4166374786       13.2292598695        4.7935638960
Ti         7.5753896484        7.5922293563       -0.0008394422
Ti         9.4875802653        9.4548435650        4.7994446483
Ti         7.5761921690        9.4560507659        2.3754990692
Ti         9.4566898031        7.5790558989        7.1898178985
O        -0.0025627706       -0.0011645587        2.0051783142
O         1.8815102097        1.8844678660        6.8169263457
O         0.0101334218        1.8873735347        4.3918050249
O         1.8910613880       -0.0040631980        9.2108507172
O         1.8788838403       -0.0000016849        5.2169342351
O         0.0000597579        1.8820893188        0.4052360208
O         1.8830778187        1.8798990231        2.8272954716
O         0.0044266651       -0.0046250226        7.6128462904
O         0.0025104354        3.7657400023        2.0020947136
O         1.8758466140       13.2374529358        6.8009462890
O        11.3537549550        1.8869078113        4.4041446707
O         5.6622210409        0.0048036082        9.2045303339
O         1.8910971963        3.7709453857        5.2144031555
O         0.0048561265       13.2347071786        0.3981192812
O         5.6810897606        1.8904897869        2.8281648065
O        11.3540956383       -0.0009827172        7.6118392797
O         3.7740810049        0.0034308393        7.6045196700
O        13.2434976520        1.8845894318        2.8183482168
O        13.2326574399       -0.0035617610        9.2169475971
O         3.7741879398        1.8832530306        4.3990920117
O         1.8725852675        5.6606017089        6.8059450287
O         0.0121056312       11.3501338811        1.9922718911