     192
 i =        1, E =     -5769.0673851818
Ti         0.0036387781        0.0001565219       -0.0029580693
Ti         0.0004631438       -0.0040219974        0.0073108126
Ti        -0.0005400854        0.0027576335       -0.0102680944
Ti         0.0024188592       -0.0015993738       -0.0001906207
Ti        -0.0014764293        0.0017155685        0.0014430545
Ti        -0.0010871760       -0.0017825987       -0.0019650195
Ti         0.0010262255       -0.0000282589       -0.0006675756
Ti        -0.0006249873        0.0001214590        0.0004021051
Ti         0.0045382595        0.0021707564        0.0101115902
Ti         0.0042717114       -0.0012772784       -0.0000999455
Ti        -0.0003409215       -0.0008557101        0.0044709619
Ti        -0.0024156701        0.0015104751        0.0014398111
Ti         0.0021171194       -0.0025169074        0.0007321355
Ti        -0.0011049224       -0.0009428026       -0.0018390373
Ti         0.0052836745        0.0014470175        0.0077542838
Ti         0.0002694431       -0.0031167179       -0.0054333177
Ti         0.0009395510        0.0011638420       -0.0041487130
Ti        -0.0021674996       -0.0007045740        0.0002416647
Ti         0.0008927127        0.0011416115       -0.0011480833
Ti         0.0002413282       -0.0005266041        0.0017079402
Ti        -0.0016329329       -0.0005998201        0.0022094527
Ti         0.0015689835        0.0023362100        0.0019244922
Ti         0.0028018784       -0.0025549137       -0.0089530930
Ti         0.0011337205        0.0020604132        0.0033921466
Ti        -0.0013886194        0.0008140635       -0.0001341898
Ti        -0.0024716772        0.0006518774       -0.0023522669
Ti         0.0042527890       -0.0000981330        0.0020188323
Ti        -0.0002089460       -0.0018124252       -0.0027749193
Ti        -0.0011615710        0.0001419145        0.0009213814
Ti        -0.0029427473       -0.0030457692        0.0006776428
Ti        -0.0019433360       -0.0030137751       -0.0011396169
Ti         0.0016132416        0.0018966600       -0.0014068889
Ti        -0.0011078886        0.0044124701       -0.0001109983
Ti         0.0019071774       -0.0009315493        0.0006293456
Ti         0.0042773404        0.0013564302        0.0003975677
Ti        -0.0000936116       -0.0011049008        0.0017554860
Ti         0.0005911949        0.0002794391       -0.0045932088
Ti         0.0019284338        0.0023984408       -0.0020262269
Ti         0.0003718157       -0.0009729576       -0.0002378242
Ti        -0.0013282802       -0.0016296102        0.0004257921
Ti        -0.0014301828       -0.0019371786       -0.0007890863
Ti         0.0012012502        0.0010175687       -0.0038373576
Ti         0.0034771936       -0.0002316696       -0.0004076049
Ti         0.0022612670        0.0017993011       -0.0039120831
Ti         0.0010271979        0.0010088530       -0.0016289051
Ti        -0.0006042230        0.0011307919       -0.0017310830
Ti        -0.0004723964       -0.0041949497       -0.0020602575
Ti         0.0012940811       -0.0004059712        0.0050252136
Ti        -0.0013816067       -0.0013582535       -0.0009627575
Ti        -0.0068092547        0.0008692174        0.0023576014
Ti         0.0000960189        0.0000325073       -0.0027957279
Ti         0.0006216239        0.0020522886       -0.0006078950
Ti        -0.0016664788        0.0007436728       -0.0015720144
Ti        -0.0006284884        0.0025126174        0.0039963842
Ti         0.0003889734        0.0019325424        0.0009786930
Ti        -0.0001241709       -0.0015189897       -0.0014657040
Ti         0.0005966054        0.0033020537       -0.0020787706
Ti         0.0017467495       -0.0003870521       -0.0029726806
Ti         0.0028910780        0.0033981121       -0.0039441277
Ti        -0.0074594755       -0.0023454062       -0.0019538492
Ti         0.0014721014        0.0034617143       -0.0017629994
Ti         0.0042746913       -0.0006947629       -0.0025156291
Ti        -0.0003880463       -0.0003790665       -0.0069401236
Ti         0.0003782040        0.0028396546       -0.0041042857
O         0.0002083583        0.0007726300        0.0020134529
O         0.0004840230       -0.0021569020       -0.0040700143
O         0.0001541032        0.0003953392        0.0042916469
O        -0.0017090814        0.0001734433        0.0011153497
O         0.0011033334        0.0049535434       -0.0005928261
O        -0.0003166066       -0.0008754459        0.0057701498
O        -0.0000442746        0.0004708623       -0.0027420938
O        -0.0057082626        0.0001021752       -0.0001687900
O        -0.0005522150       -0.0067099409        0.0004033147
O         0.0011379673        0.0009336824        0.0013604075
O        -0.0016647069        0.0004759347        0.0018490375
O        -0.0025761845       -0.0006696972        0.0005793150
O         0.0000270020       -0.0021477969       -0.0040648219
O        -0.0007082865       -0.0005175932       -0.0007055325
O        -0.0005890253       -0.0001483556       -0.0009786633
O        -0.0021910094        0.0006830641       -0.0015711859
O        -0.0024237368       -0.0005987857       -0.0024847328
O         0.0003978554        0.0006878381        0.0000474698
O         0.0002662349        0.0003201064       -0.0035109566
O        -0.0016521339       -0.0006049624        0.0033025227
O         0.0002964941       -0.0025542646        0.0021043488
O        -0.0004828442        0.0004864999        0.0002265559
O        -0.0007410166       -0.0011286841        0.0004861293
O         0.0006394334       -0.0011949033       -0.0025746248
O        -0.0009065483        0.0013768664       -0.0009484325
O         0.0004844046        0.0022488469       -0.0013996771
O         0.0004862877       -0.0003362849        0.0043509821
O         0.0029485473       -0.0007843163       -0.0004676301
O         0.0001690023        0.0009467038       -0.0006294853
O        -0.0010044243        0.0020320548        0.0004485747
O        -0.0009106770        0.0000506653       -0.0012175448
O         0.0017267983       -0.0008342166        0.0007003773
O        -0.0006290072        0.0029457050        0.0008157069
O         0.0008270832       -0.0035030196        0.0010484223
O         0.0010288707       -0.0011371319        0.0011402069
O         0.0016290142       -0.0002120857        0.0002587452
O         0.0005644853        0.0032287692       -0.0032261962
O        -0.0003297967        0.0013074862        0.0026948740
O        -0.0016741266       -0.0008531848        0.0023217478
O        -0.0033629982       -0.0009822070       -0.0012202761
O        -0.0000876556       -0.0021851280        0.0008168243
O         0.0001795137        0.0006675441       -0.0006460984
O        -0.0018797225       -0.0012590712       -0.0032645355
O        -0.0006178208       -0.0004736820        0.0001086977
O         0.0018897998       -0.0005196438       -0.0039407382
O         0.0006917359       -0.0002291938        0.0002600742
O        -0.0020553501       -0.0005360594       -0.0019509956
O        -0.0024886949        0.0001729113       -0.0003247514
O        -0.0013411412       -0.0011889650       -0.0004499958
O         0.0008292704       -0.0018693147       -0.0001326509
O         0.0008716515       -0.0019993867        0.0010752243
O        -0.0016413795       -0.0002671624        0.0002302463
O         0.0003252021       -0.0012267982       -0.0000898413
O        -0.0008361075        0.0025261717       -0.0020088335
O        -0.0035435641       -0.0008314855       -0.0007052892
O        -0.0029303197       -0.0005805595       -0.0018842230
O        -0.0014123364       -0.0004823901        0.0015817146
O         0.0006199035       -0.0000799664        0.0003379212
O        -0.0016637989       -0.0005630166        0.0006486118
O         0.0006396767       -0.0014964176       -0.0008840438
O        -0.0029165180       -0.0002246858        0.0025978582
O        -0.0000842075       -0.0001743576        0.0035558156
O         0.0029671538       -0.0011959998        0.0008745791
O        -0.0039521450       -0.0002040385        0.0030345295
O        -0.0020027490       -0.0041389559        0.0005319642
O        -0.0009164153        0.0003377507        0.0009640095
O         0.0003717696        0.0000893200        0.0002498810
O        -0.0020949827       -0.0002535308        0.0007497131
O         0.0002847252        0.0000333146        0.0013365431
O        -0.0015423449        0.0009959823        0.0006462061
O        -0.0066807347       -0.0005638259       -0.0010640609
O        -0.0013192215       -0.0003626406       -0.0002859624
O         0.0008109044       -0.0001394257       -0.0014684321
O        -0.0009437756       -0.0019291361       -0.0001095049
O        -0.0027415080        0.0003290185       -0.0002623276
O         0.0011866514       -0.0001279951        0.0012923148
O         0.0005670256        0.0003182534        0.0011158684
O         0.0001979155       -0.0012990897        0.0014349246
O         0.0060412131       -0.0005665665        0.0020848362
O         0.0002038188       -0.0004129736        0.0011372811
O        -0.0005857737       -0.0011700532        0.0009950565
O         0.0006591921        0.0028968461        0.0020679511
O        -0.0013045113       -0.0017760098        0.0016164415
O         0.0004720684        0.0001632802       -0.0015474365
O         0.0000271637        0.0022529790        0.0000034997
O        -0.0009851166        0.0021002937       -0.0017546387
O         0.0038433551       -0.0001326307        0.0003993571
O         0.0009414282        0.0003316933       -0.0000551459
O        -0.0001117117        0.0028636553        0.0004508763
O        -0.0018022944       -0.0034345114       -0.0034304531
O         0.0003541590       -0.0012721832       -0.0012029614
O         0.0002004677        0.0028272713        0.0009809249
O        -0.0018989524       -0.0003312268        0.0014476675
O         0.0034672761       -0.0004281066        0.0016538571
O         0.0002515301       -0.0003069863        0.0008761275
O        -0.0002896890       -0.0004498242        0.0005576272
O        -0.0005319698        0.0007386749        0.0028042311
O         0.0007861397       -0.0025151510       -0.0009793960
O        -0.0013623280        0.0008813862        0.0006643136
O         0.0006184203        0.0016742704        0.0002441826
O         0.0005832299        0.0015386854       -0.0021018661
O         0.0025034871       -0.0007039621        0.0058669311
O         0.0052426406        0.0010221957       -0.0012410932
O        -0.0000641318        0.0021400409       -0.0014346187
O        -0.0005353407        0.0025262831        0.0026803575
O        -0.0003069518       -0.0009129239        0.0014582289
O        -0.0020851045        0.0003911683        0.0020630598
O        -0.0020732093        0.0015056252        0.0001466824
O        -0.0001062987       -0.0021319513       -0.0001024127
O        -0.0003122661        0.0008487578        0.0006914024
O         0.0035823586        0.0010323620        0.0000218407
O         0.0018515929        0.0010061646        0.0002321585
O         0.0006795251       -0.0006445973        0.0009441972
O         0.0023942310        0.0003133113       -0.0007974151
O         0.0011546411        0.0007516018        0.0018407772
O        -0.0011521797        0.0009401396       -0.0013969971
O         0.0008605471       -0.0035880858        0.0021804937
O         0.0000824287        0.0008325686        0.0024001272
O         0.0015192387       -0.0028235884       -0.0004802686
O         0.0006704558        0.0029106117       -0.0041128128
O         0.0010279170        0.0024455267        0.0006127731
O         0.0005423932       -0.0010486688        0.0020641338
O         0.0000605992        0.0010090507        0.0039930450
O         0.0000485378        0.0003668420        0.0032183966
O         0.0009796603        0.0008729142        0.0012428196
O        -0.0016161152       -0.0013177222        0.0015159070
O         0.0023338357        0.0007204678       -0.0003381033
O        -0.0012322533       -0.0030797298        0.0010275447
     192
 i =        2, E =     -5769.0723521331
Ti         0.0021287785       -0.0014235708       -0.0007339967
Ti         0.0002393956        0.0003688311        0.0025174772
Ti         0.0011656912        0.0002212032       -0.0034385751
Ti         0.0022564568       -0.0011073504       -0.0008497028
Ti        -0.0011593101        0.0004609129        0.0004963263
Ti        -0.0018528070       -0.0010310647       -0.0007808548
Ti         0.0008211534        0.0003141971       -0.0010676154
Ti        -0.0015765896       -0.0004740546       -0.0006793807
Ti         0.0016762766        0.0016042423        0.0043117145
Ti         0.0010213041        0.0002293863       -0.0003473483
Ti         0.0001592445       -0.0003344102        0.0001690830
Ti        -0.0005184618        0.0010392619       -0.0000123274
Ti         0.0003749017       -0.0016735028        0.0002027244
Ti         0.0021613943       -0.0026532714       -0.0002327141
Ti         0.0015352403        0.0014308542        0.0036785101
Ti        -0.0009661057       -0.0005476761       -0.0007004247
Ti         0.0020626105       -0.0007669871       -0.0014487442
Ti        -0.0009650972       -0.0000758369       -0.0000659728
Ti         0.0001372107        0.0001783752       -0.0003208597
Ti         0.0005727477       -0.0001992782        0.0023278931
Ti        -0.0004309065        0.0009671017        0.0007980791
Ti        -0.0000195325        0.0011411158        0.0019130153
Ti         0.0011433183       -0.0017022068       -0.0040297383
Ti         0.0029675729       -0.0000092556        0.0008694635
Ti        -0.0017435177        0.0010089717        0.0000714665
Ti        -0.0020914155        0.0011332782       -0.0005663791
Ti         0.0006803709       -0.0014260847        0.0008664770
Ti         0.0004743615        0.0001326828       -0.0016381054
Ti         0.0007779411       -0.0003539016        0.0016177387
Ti        -0.0033512235        0.0002235041        0.0002518603
Ti        -0.0004587498       -0.0021397587       -0.0013493444
Ti        -0.0005521206        0.0016577202       -0.0008068174
Ti         0.0006943572       -0.0001587111       -0.0012022539
Ti         0.0008920292       -0.0013244097        0.0005193763
Ti         0.0005592880        0.0013836692        0.0005196600
Ti         0.0007003260       -0.0006804485        0.0005028992
Ti         0.0018566531        0.0000612800       -0.0018874424
Ti         0.0009835401        0.0017338237       -0.0009309164
Ti        -0.0010086501       -0.0012074034       -0.0003938498
Ti         0.0002080407       -0.0011803349       -0.0006630955
Ti        -0.0016811635       -0.0010223315       -0.0006977147
Ti         0.0001430709       -0.0005549899       -0.0022960928
Ti         0.0010857572       -0.0004312011       -0.0001320967
Ti         0.0007387655        0.0002570186       -0.0022351085
Ti        -0.0005706847        0.0021762021       -0.0008597328
Ti         0.0014966339        0.0013250701       -0.0007895223
Ti        -0.0001055017       -0.0038498786       -0.0022929603
Ti         0.0029867985        0.0013370292        0.0025099540
Ti        -0.0000096637        0.0015286930       -0.0011492194
Ti        -0.0039417478        0.0011253182        0.0010631970
Ti         0.0000823364       -0.0016555058       -0.0020461078
Ti        -0.0000181546        0.0013701476       -0.0003985345
Ti        -0.0003813575        0.0000893660       -0.0021452743
Ti        -0.0010773323        0.0013241949        0.0016352969
Ti         0.0014055531        0.0003200975       -0.0008645710
Ti        -0.0004810849       -0.0000762625       -0.0005151702
Ti         0.0004607955        0.0018713063       -0.0027633926
Ti         0.0008605041       -0.0000425985       -0.0015136860
Ti         0.0013797201        0.0017940184       -0.0028624521
Ti        -0.0011413362       -0.0013503852        0.0002227931
Ti         0.0018083543        0.0006573847       -0.0017971432
Ti         0.0016072512        0.0013781658       -0.0024531836
Ti        -0.0016856436        0.0000989104       -0.0030245358
Ti         0.0008597390        0.0006772036       -0.0023427240
O         0.0003033270       -0.0004357543       -0.0003516948
O        -0.0000236640       -0.0010762547       -0.0025450645
O        -0.0007590356       -0.0001932470        0.0040730527
O        -0.0019765809        0.0004263162       -0.0005679403
O        -0.0000587551        0.0004429570        0.0000212876
O         0.0003689293        0.0009179023        0.0021491046
O         0.0010632572        0.0001803475       -0.0030401142
O        -0.0018509865        0.0001527767        0.0017317402
O         0.0000963061       -0.0005953553       -0.0017142791
O         0.0003590444        0.0005849838        0.0005752270
O        -0.0015101974        0.0001310298       -0.0004758601
O        -0.0005802320        0.0004234031       -0.0002285775
O        -0.0001623509        0.0001256914       -0.0030076009
O         0.0000163264        0.0006884613        0.0010209113
O        -0.0004683683       -0.0004099748       -0.0007381219
O        -0.0021439714       -0.0000205396        0.0009044729
O        -0.0001624332        0.0000409710        0.0013992234
O        -0.0012451316       -0.0001235567        0.0000783232
O        -0.0000226686        0.0000860365       -0.0033293851
O         0.0007289071        0.0001277810        0.0024210401
O         0.0005343463       -0.0010933045        0.0008039202
O        -0.0003168103        0.0001356869       -0.0002094301
O        -0.0001664790       -0.0013123737        0.0008325268
O         0.0002483423       -0.0006077950        0.0001046056
O         0.0001932284       -0.0002777018       -0.0008895278
O         0.0003251436        0.0010377348       -0.0014812447
O         0.0001650312        0.0005681373        0.0015327197
O        -0.0000803932       -0.0003492160       -0.0007616385
O         0.0003933524       -0.0006662341        0.0007041958
O        -0.0006279948        0.0006240186        0.0009729171
O        -0.0001975852        0.0000157763       -0.0007754034
O        -0.0001124781       -0.0003858811        0.0028643325
O         0.0020482765       -0.0002557856       -0.0010495247
O         0.0002434636       -0.0004947434       -0.0005091825
O         0.0000817615       -0.0011692900       -0.0003099578
O         0.0008232172       -0.0002556498       -0.0019838940
O        -0.0002410708        0.0003853516       -0.0025920312
O        -0.0000735608        0.0000950685        0.0017762440
O        -0.0018884834       -0.0007494389        0.0006996009
O        -0.0014100245       -0.0005442879       -0.0002677689
O         0.0000282565       -0.0008623023        0.0004902759
O         0.0003761922       -0.0001629794        0.0008215569
O        -0.0005576811       -0.0013140018       -0.0013782131
O         0.0000696968       -0.0001380114       -0.0008928684
O         0.0008631712        0.0000670329       -0.0032228022
O         0.0023346723        0.0000220305       -0.0002701965
O        -0.0009284606        0.0015673416        0.0012643552
O        -0.0011464727       -0.0001536614        0.0010317004
O         0.0013975196        0.0009889192       -0.0006914714
O         0.0005504683       -0.0011278761       -0.0004749271
O        -0.0012631437        0.0002220833        0.0006616399
O         0.0000269970       -0.0003226656       -0.0009142947
O        -0.0001748582        0.0012252111        0.0009718715
O         0.0014825409        0.0015623959        0.0012245186
O        -0.0011515770       -0.0010584135       -0.0001602843
O        -0.0019990321       -0.0000927588        0.0010500895
O         0.0000510166        0.0001554612        0.0029939471
O         0.0013964249        0.0007787018        0.0018321958
O        -0.0007767196       -0.0008388163        0.0004743465
O         0.0007564089       -0.0007971666       -0.0002204569
O         0.0026144367       -0.0002762144       -0.0004164940
O        -0.0006693039        0.0014938466        0.0003255982
O         0.0014463612       -0.0001680973        0.0000908801
O        -0.0016319074       -0.0003875910        0.0004035835
O         0.0003194272       -0.0030234797        0.0001727642
O        -0.0007754259       -0.0006926169       -0.0015907533
O         0.0001195352        0.0015028881        0.0005344141
O         0.0015114482       -0.0000932608       -0.0013460323
O        -0.0000921565       -0.0004789128        0.0012913895
O        -0.0002052932        0.0007356967        0.0008691780
O        -0.0032544326        0.0012249912        0.0006037804
O        -0.0009606438        0.0002675258        0.0006155315
O        -0.0002343668        0.0002280022        0.0004705595
O         0.0004513312       -0.0005251924        0.0023536040
O        -0.0025920126        0.0000884922        0.0015498999
O         0.0009532658        0.0014777126        0.0029148203
O         0.0010167016        0.0006380873       -0.0002659843
O        -0.0000243442       -0.0005457901        0.0000374816
O         0.0034528210       -0.0007006494        0.0000911213
O         0.0003618265        0.0004928546       -0.0001781891
O         0.0000438067       -0.0015778534       -0.0001246200
O         0.0003096891        0.0012866559       -0.0007042653
O        -0.0006459661       -0.0000591752        0.0001057678
O        -0.0011953731       -0.0003197169       -0.0014500442
O        -0.0005751215        0.0002124312        0.0011036799
O         0.0006965564       -0.0002434028       -0.0007775724
O         0.0014367509       -0.0001908534        0.0016166961
O        -0.0003675180        0.0005526261        0.0014233859
O         0.0001470675        0.0018184597        0.0004142728
O         0.0005781248       -0.0029976764       -0.0002068561
O         0.0011340777       -0.0023612180       -0.0003558884
O         0.0003053436        0.0014778188       -0.0002215235
O        -0.0014531897        0.0016490241        0.0005680269
O         0.0011035744       -0.0001795004        0.0004591549
O         0.0000517737        0.0014124804        0.0011338527
O        -0.0029282394        0.0000025461        0.0006429531
O        -0.0008931756       -0.0006372666        0.0009996549
O         0.0000672789       -0.0011259847       -0.0008919586
O        -0.0005573668       -0.0010387428        0.0002651434
O         0.0008473396       -0.0003709754       -0.0003184981
O        -0.0011218874        0.0011914794       -0.0002985216
O        -0.0010059199       -0.0014227520        0.0032759720
O         0.0035592319       -0.0007535296       -0.0000212856
O         0.0000317872       -0.0009892770       -0.0010926591
O        -0.0009972218        0.0041805187        0.0014904913
O        -0.0014047752        0.0001051660        0.0005331748
O        -0.0023659450       -0.0016283283        0.0004302573
O        -0.0015706655        0.0016802387       -0.0016683692
O         0.0000899171        0.0002301901        0.0015533564
O        -0.0004981461        0.0004071710        0.0001630595
O         0.0037552980       -0.0012528714        0.0015251541
O         0.0007401498        0.0008032417        0.0002852945
O         0.0012852247       -0.0011498663        0.0006018437
O         0.0009109775       -0.0015349266        0.0005901818
O         0.0001450346        0.0006278094        0.0006602552
O        -0.0006907023       -0.0002919994       -0.0016085085
O        -0.0011730358       -0.0020789039        0.0002563015
O         0.0004814613        0.0002938575       -0.0001023629
O         0.0009279544       -0.0020454242        0.0016193521
O        -0.0013295929        0.0003403478       -0.0004139876
O         0.0010144253        0.0024009434       -0.0004244927
O        -0.0006281341       -0.0021484388        0.0002673300
O         0.0000143256       -0.0010395879        0.0012070976
O        -0.0015682224        0.0011469253        0.0014954636
O         0.0000139938        0.0004533471        0.0025523551
O        -0.0022062481       -0.0026048379        0.0021682642
O         0.0007955870        0.0000144074        0.0009310565
O        -0.0007214547       -0.0001616628        0.0007619188
     192
 i =        3, E =     -5769.0743110527
Ti         0.0014978700       -0.0014797488        0.0000383841
Ti        -0.0001136989        0.0019748319        0.0009308781
Ti         0.0015365113       -0.0006035549       -0.0008535352
Ti         0.0015591861       -0.0005699442       -0.0008270972
Ti        -0.0007211622        0.0002495516        0.0000304702
Ti        -0.0018131213       -0.0007211034       -0.0003602004
Ti         0.0005717281        0.0002917463       -0.0007349736
Ti        -0.0009876675       -0.0002376615       -0.0007306078
Ti         0.0005991430        0.0012524661        0.0020159861
Ti        -0.0004390353        0.0009063286       -0.0004894189
Ti         0.0003090508       -0.0000413135       -0.0009193244
Ti         0.0002551051        0.0003954178       -0.0008326123
Ti         0.0003263684       -0.0008831413       -0.0001036879
Ti         0.0024167483       -0.0021944233        0.0006860229
Ti        -0.0000199182        0.0012365549        0.0018932932
Ti        -0.0008773303        0.0003687363        0.0002277476
Ti         0.0016899755       -0.0012513966       -0.0003273142
Ti        -0.0005080564        0.0002112582        0.0001732609
Ti        -0.0000498345       -0.0003021146       -0.0000355712
Ti         0.0006341901       -0.0001305901        0.0021878969
Ti        -0.0001317151        0.0009058356        0.0004788601
Ti        -0.0004476539        0.0001822706        0.0017247533
Ti         0.0002315635       -0.0008404901       -0.0014938416
Ti         0.0025790650       -0.0008157502        0.0000746587
Ti        -0.0013237122        0.0005977185       -0.0000007932
Ti        -0.0014449377        0.0007510288        0.0001339528
Ti        -0.0005476479       -0.0015737487        0.0003478969
Ti         0.0001532133        0.0003679037       -0.0016228913
Ti         0.0013660700       -0.0003212086        0.0014121833
Ti        -0.0026916979        0.0012842165        0.0000819659
Ti        -0.0000167467       -0.0015237717       -0.0014311434
Ti        -0.0006177188        0.0009680151       -0.0003106791
Ti         0.0010750229       -0.0009074445       -0.0016559410
Ti         0.0007704927       -0.0012575645        0.0002940335
Ti        -0.0002474468        0.0007497826        0.0003671765
Ti         0.0007473833       -0.0005613212        0.0000119437
Ti         0.0017212972        0.0003309400       -0.0007044465
Ti         0.0005694445        0.0013840564       -0.0005881707
Ti        -0.0005791463       -0.0008518494       -0.0004069960
Ti         0.0006200998       -0.0007270738       -0.0004093622
Ti        -0.0009261483       -0.0003312699       -0.0005074466
Ti         0.0000262394       -0.0002399936       -0.0016643053
Ti         0.0000262500       -0.0005191139       -0.0001842246
Ti         0.0004194295       -0.0003987943       -0.0016781136
Ti        -0.0008659656        0.0020574363       -0.0002140352
Ti         0.0017050653        0.0006438243        0.0000199626
Ti        -0.0003280777       -0.0031539953       -0.0021971164
Ti         0.0021105033        0.0011661857        0.0008091456
Ti         0.0004906332        0.0015924977       -0.0015468044
Ti        -0.0019440575        0.0005978312        0.0006255300
Ti         0.0000814781       -0.0015728078       -0.0014592316
Ti        -0.0005288808        0.0006660768       -0.0004586931
Ti        -0.0001692907       -0.0005918224       -0.0018380324
Ti        -0.0007432645        0.0007283780        0.0006270917
Ti         0.0018969680       -0.0005106476       -0.0015505240
Ti        -0.0004973065        0.0001917933       -0.0001323196
Ti         0.0000131272        0.0014968557       -0.0027857138
Ti         0.0006185540        0.0002948034       -0.0004794151
Ti         0.0005230062        0.0012932257       -0.0022418692
Ti         0.0002808622       -0.0008496091        0.0008491923
Ti         0.0017369876       -0.0000545629       -0.0013728225
Ti         0.0001995868        0.0012182244       -0.0015111133
Ti        -0.0018503564       -0.0006122444       -0.0015408304
Ti         0.0005534303        0.0002907288       -0.0020260630
O        -0.0000124877       -0.0006873536       -0.0007412906
O         0.0001485328       -0.0000277086       -0.0011878921
O        -0.0013024932       -0.0001064101        0.0027094302
O        -0.0010285042       -0.0000226936        0.0000930807
O         0.0004042833       -0.0013711972        0.0005847214
O        -0.0003292076        0.0012084904       -0.0000468154
O         0.0010708103        0.0000277187       -0.0024944875
O        -0.0006845366        0.0000151486        0.0009337732
O        -0.0001470806        0.0016444733       -0.0009791022
O         0.0002177893        0.0006451699        0.0001617519
O        -0.0011625498       -0.0000271965       -0.0005617669
O         0.0002555390        0.0000486565       -0.0000939197
O         0.0000282800        0.0007648690       -0.0015357179
O        -0.0001165331        0.0009112135        0.0006685571
O         0.0001229884       -0.0001137936       -0.0003732195
O        -0.0018785469       -0.0000555160        0.0006936067
O         0.0004471981       -0.0003679608        0.0013283546
O        -0.0006968719        0.0001574491        0.0000852727
O         0.0001098061        0.0000991203       -0.0015255889
O         0.0010755761        0.0001683248        0.0003628676
O         0.0003048048       -0.0006602979       -0.0000617564
O        -0.0002413393       -0.0005773620        0.0002038850