     192
 i =        1, E =     -5789.2820901993
Ti        -0.0036763707        0.0140068605       -0.0061625271
Ti        -0.0085004183       -0.0035369168       -0.0155814406
Ti        -0.0059410188        0.0010896200       -0.0164611310
Ti        -0.0068762400        0.0082602262        0.0134071463
Ti        -0.0054626247       -0.0049865249        0.0144512835
Ti         0.0038971559        0.0015175558        0.0018382979
Ti         0.0032662342        0.0022857463       -0.0256592273
Ti        -0.0004598193        0.0060193760        0.0034102590
Ti        -0.0004467346       -0.0118228123       -0.0056728505
Ti        -0.0105374157       -0.0068021563       -0.0000015820
Ti        -0.0150611870        0.0011847723        0.0003016470
Ti        -0.0047666336       -0.0068118359       -0.0004760260
Ti        -0.0012793482       -0.0046689230       -0.0048877195
Ti         0.0144376461        0.0041964722        0.0227896475
Ti        -0.0129040381        0.0081249837        0.0085350644
Ti         0.0025383172        0.0196939143       -0.0142024849
Ti        -0.0018971588        0.0072659447       -0.0171907762
Ti        -0.0013525840       -0.0169055215       -0.0064325322
Ti         0.0060191805        0.0081466623        0.0018378296
Ti         0.0096508976        0.0079942462       -0.0161640490
Ti        -0.0079712678        0.0190539312       -0.0056495728
Ti        -0.0042147535       -0.0100091724       -0.0341495521
Ti        -0.0018094766       -0.0132114188       -0.0064864930
Ti        -0.0032177462        0.0075781217        0.0011933038
Ti        -0.0014003266       -0.0065155708        0.0087846557
Ti         0.0003640933       -0.0057333424        0.0007779094
Ti         0.0001442700        0.0006709870        0.0083554886
Ti         0.0142650868        0.0071135058        0.0274810007
Ti         0.0147756107       -0.0001356407        0.0055716243
Ti        -0.0092874931        0.0194678393       -0.0079186970
Ti         0.0075021048       -0.0074151785        0.0019043065
Ti        -0.0030331292       -0.0032610281        0.0111456286
Ti         0.0051458554        0.0019087413       -0.0103499215
Ti         0.0044956133        0.0164263026        0.0021324242
Ti         0.0143891540       -0.0077979620       -0.0075076118
Ti         0.0024982606        0.0032981044       -0.0125539535
Ti         0.0014305759        0.0033007707       -0.0007737292
Ti        -0.0041038114        0.0008467788        0.0010432629
Ti        -0.0064508693       -0.0022556787       -0.0164321084
Ti        -0.0097914484        0.0103033904       -0.0007347491
Ti        -0.0093002506       -0.0070132204       -0.0068727283
Ti         0.0042649214        0.0135177677        0.0094108192
Ti         0.0081675684        0.0032564263        0.0006476647
Ti         0.0039231617        0.0082049833        0.0057503887
Ti         0.0012100880        0.0101599985       -0.0169790770
Ti         0.0042308862        0.0080622583       -0.0059302861
Ti         0.0029104301        0.0065621289       -0.0016480514
Ti        -0.0079765534        0.0287719150        0.0051698506
Ti        -0.0055978105       -0.0002123315        0.0188184079
Ti        -0.0140860480        0.0064514830        0.0018040777
Ti        -0.0029576788        0.0020398552        0.0092000369
Ti         0.0089163700        0.0000874622       -0.0147064580
Ti         0.0128712227        0.0053939120       -0.0042405793
Ti         0.0048315453       -0.0084793332        0.0043214234
Ti        -0.0137276317        0.0062653700        0.0015667082
Ti         0.0031552501        0.0072663388       -0.0061647962
Ti        -0.0037514547       -0.0027571949       -0.0014970810
Ti         0.0089399174       -0.0069720721       -0.0018098418
Ti         0.0103315085       -0.0025505173        0.0025118396
Ti        -0.0078436520       -0.0084000427        0.0088301307
Ti         0.0012872112        0.0020791519       -0.0053051213
Ti         0.0006824431        0.0007988703        0.0044890299
Ti        -0.0013933848        0.0059070444        0.0051312825
Ti        -0.0116886875        0.0050603463        0.0056660467
O         0.0012205256        0.0008177104       -0.0076216312
O         0.0093015741       -0.0014976094        0.0159579514
O         0.0156681512       -0.0029735874        0.0043467228
O         0.0043222465       -0.0031227538       -0.0037941979
O         0.0007819694       -0.0002493220       -0.0067983473
O         0.0049654506       -0.0009015135       -0.0058316672
O         0.0046707091       -0.0096015108       -0.0016693382
O         0.0152419174       -0.0012721971        0.0039719152
O        -0.0031768845       -0.0030424511       -0.0057325699
O        -0.0002829769       -0.0164993579        0.0027221848
O        -0.0127708620       -0.0002444468        0.0181987295
O        -0.0179094421        0.0043949259       -0.0029248328
O        -0.0036007213        0.0096998066        0.0046743807
O         0.0010093973        0.0054587130        0.0013210801
O         0.0021314589        0.0059427218       -0.0040847807
O         0.0064756603        0.0008797531        0.0016565364
O         0.0005686149       -0.0034611895       -0.0050992429
O        -0.0010576461        0.0031286870       -0.0087729930
O         0.0077138008        0.0074368679       -0.0075930829
O         0.0061568574       -0.0004488225        0.0184509175
O        -0.0042778632        0.0090142027        0.0180845120
O        -0.0036783994       -0.0066433939        0.0022764239
O        -0.0062472210       -0.0170403166        0.0020177497
O        -0.0016362262        0.0149937239        0.0032031113
O         0.0002645466       -0.0061921626        0.0045581988
O        -0.0096641763       -0.0022055239        0.0212249230
O         0.0170798702        0.0048393244        0.0064311611
O         0.0034874470       -0.0016733400       -0.0050822200
O         0.0084142266       -0.0004185290       -0.0066385591
O        -0.0039571787       -0.0023207901        0.0030707399
O         0.0044501240       -0.0047673213       -0.0112999931
O        -0.0032582459        0.0023068346       -0.0233581670
O        -0.0009616298       -0.0122206163        0.0001109300
O         0.0056453393        0.0034491139       -0.0031306790
O         0.0104290192       -0.0013787359       -0.0067246007
O        -0.0111068802        0.0003793351        0.0042338888
O         0.0066806704        0.0105311005        0.0050089073
O         0.0006109539       -0.0052412068        0.0049588899
O        -0.0060899468       -0.0056383429       -0.0096524577
O        -0.0254596734        0.0009523291        0.0083242145
O        -0.0028455726       -0.0144917521        0.0064705201
O        -0.0025630374        0.0139675209       -0.0041340615
O         0.0071960319       -0.0012543562        0.0020110736
O         0.0033288346       -0.0004300406        0.0063990533
O        -0.0129611739       -0.0012240864        0.0063616404
O         0.0056599092        0.0056510627       -0.0086169181
O        -0.0084465917       -0.0003209240       -0.0084165913
O         0.0058290015       -0.0001018310        0.0000534106
O        -0.0082344957       -0.0073598408       -0.0051802621
O         0.0055337423       -0.0183083841        0.0045490071
O         0.0027406563        0.0000012590        0.0039336763
O         0.0018016435       -0.0005235639       -0.0032539321
O        -0.0031938173       -0.0137828487        0.0009766240
O         0.0010198203        0.0001443742       -0.0121117665
O        -0.0139335748       -0.0052388470        0.0041493827
O        -0.0002903777       -0.0006765277       -0.0029388537
O         0.0022992153        0.0110478433       -0.0066046853
O         0.0091821671       -0.0032514620       -0.0001540247
O         0.0126420886        0.0003219406        0.0009322377
O         0.0026595395       -0.0038832635        0.0007152509
O        -0.0009194042        0.0012982397        0.0080255764
O        -0.0084526574       -0.0063585077        0.0070522548
O         0.0071402103        0.0023242605        0.0008074569
O        -0.0101996166        0.0002545431       -0.0022063813
O        -0.0013880065        0.0047640744        0.0052795045
O         0.0097207540       -0.0188396561        0.0077470584
O         0.0004840703       -0.0007392077        0.0064883863
O        -0.0058780055        0.0021561285        0.0111084835
O         0.0045763278       -0.0040619952       -0.0025253326
O        -0.0062339206       -0.0052021337       -0.0041189414
O         0.0068225004       -0.0005175778       -0.0023943488
O         0.0045515286        0.0059660783        0.0108850460
O         0.0011832736       -0.0327177692        0.0032593691
O         0.0030174404       -0.0011069618       -0.0004306613
O        -0.0019274484        0.0081105242       -0.0030290978
O         0.0045925789        0.0017071574        0.0016414916
O        -0.0032220206       -0.0125308757        0.0110722915
O         0.0001447720        0.0043034424       -0.0052566328
O         0.0200168591       -0.0034710227        0.0062622288
O        -0.0114743751       -0.0022374069        0.0037308743
O        -0.0026337021       -0.0106242715        0.0097450509
O         0.0005076133       -0.0092876303        0.0113073275
O         0.0012406765       -0.0012267173        0.0046748100
O        -0.0062249581       -0.0015984550       -0.0076863814
O         0.0016844804       -0.0057595352       -0.0312818654
O        -0.0008178476       -0.0050343369        0.0006334842
O        -0.0172438810       -0.0008657493       -0.0018963297
O         0.0055862493       -0.0035066889        0.0011926167
O         0.0033823264       -0.0042258918        0.0102804261
O         0.0002364096       -0.0015174367        0.0037160837
O         0.0027025844        0.0009867025       -0.0008791020
O         0.0081379915        0.0027420259       -0.0054831477
O        -0.0113006681       -0.0017497583       -0.0014976057
O         0.0026094495        0.0048905307       -0.0070590900
O         0.0064376530        0.0044346872        0.0046157223
O        -0.0093841626       -0.0075633331       -0.0115407398
O         0.0035600401        0.0193461475       -0.0030594416
O         0.0084093895        0.0035862948        0.0077003565
O        -0.0027581334        0.0072837323       -0.0042954974
O         0.0033209932        0.0080040996        0.0007103073
O         0.0039523966        0.0005641039        0.0000419024
O        -0.0075753994       -0.0030635753       -0.0085922630
O         0.0012540299       -0.0064774628        0.0021898098
O         0.0002656350        0.0021653134        0.0009006916
O        -0.0050271783        0.0093231953       -0.0015521077
O        -0.0022966063       -0.0062678398        0.0043455140
O        -0.0096653442        0.0018297174        0.0056800285
O        -0.0026594786       -0.0045537099        0.0085325022
O        -0.0027233281        0.0053022066        0.0005993129
O         0.0022551798        0.0132614146        0.0034176373
O         0.0067041231        0.0017422851        0.0042853396
O         0.0225211729       -0.0009277806        0.0104809879
O        -0.0007430418        0.0030924170       -0.0010009052
O        -0.0154412184       -0.0018181886       -0.0011017743
O         0.0025657854       -0.0024110750       -0.0101617955
O        -0.0026948391       -0.0030994267        0.0082353646
O        -0.0075486118        0.0102222457        0.0005914206
O         0.0029381221        0.0001888442        0.0069443843
O         0.0063497324       -0.0007439341        0.0009797278
O        -0.0007404838        0.0068083470        0.0016246335
O        -0.0073825282       -0.0107191068        0.0042686605
O         0.0010276866       -0.0234492529       -0.0012197069
O         0.0226107537        0.0017681066        0.0017383123
O        -0.0066669474        0.0047836719       -0.0073273215
O         0.0045227645       -0.0043093015       -0.0078863873
O         0.0021407798       -0.0102867220        0.0004704694
O        -0.0213419811        0.0018591849       -0.0058075597
O        -0.0029739240       -0.0038758572        0.0027287831
     192
 i =        2, E =     -5789.3729593396
Ti        -0.0028074036        0.0017446897        0.0027138726
Ti         0.0004918914       -0.0029605929       -0.0042774522
Ti        -0.0040804521       -0.0009223489       -0.0130861157
Ti         0.0002516231        0.0157778062        0.0041429963
Ti         0.0022015717       -0.0007967939        0.0044621814
Ti        -0.0038943898        0.0057353243       -0.0046404480
Ti        -0.0007444506        0.0041171731       -0.0065159296
Ti         0.0006476106        0.0062550378        0.0056851616
Ti        -0.0051500546       -0.0078485374       -0.0027430037
Ti        -0.0014804327       -0.0027152614       -0.0048177070
Ti        -0.0069099258       -0.0002852099        0.0018615730
Ti         0.0013782936        0.0005856387       -0.0031397516
Ti         0.0042668803       -0.0039085751       -0.0037699967
Ti         0.0029532356        0.0064542818        0.0150321792
Ti        -0.0100506322        0.0073160323        0.0019750984
Ti        -0.0017582546        0.0137679248       -0.0101703565
Ti        -0.0000123348        0.0039225075       -0.0107878896
Ti        -0.0019770095       -0.0032380212       -0.0047925425
Ti         0.0091682047        0.0069836337        0.0001786891
Ti         0.0006242141       -0.0022743250       -0.0109154498
Ti        -0.0059566272        0.0120289695       -0.0101872359
Ti        -0.0066423334       -0.0094332739       -0.0128356603
Ti         0.0040711529       -0.0015652545        0.0047131537
Ti        -0.0074686431        0.0084142907       -0.0012607872
Ti        -0.0066600139       -0.0029883240        0.0053028887
Ti        -0.0068900547       -0.0030240441       -0.0009179674
Ti         0.0009163804        0.0056819199       -0.0009346040
Ti         0.0006676697        0.0085557126        0.0061868111
Ti         0.0061040835        0.0043613961        0.0062328394
Ti        -0.0006354241        0.0161970805       -0.0032087101
Ti         0.0016910185       -0.0003552614        0.0028015616
Ti        -0.0068746303       -0.0019965532        0.0063990326
Ti         0.0118456271       -0.0007317523       -0.0091992608
Ti        -0.0051762286        0.0111482983       -0.0044730747
Ti         0.0074900788       -0.0032042727       -0.0046952749
Ti         0.0144004485       -0.0062617929       -0.0094252897
Ti         0.0014179353        0.0008986712        0.0060111784
Ti        -0.0021790607        0.0000023281        0.0030805322
Ti        -0.0068519839        0.0062809002       -0.0087445972
Ti        -0.0034271670        0.0096534205       -0.0028430209
Ti        -0.0090428710        0.0007739543        0.0026016032
Ti         0.0050006721        0.0079396325        0.0060825695
Ti         0.0089090559       -0.0006036880        0.0021652161
Ti        -0.0033005406        0.0030196988        0.0043293429
Ti        -0.0005615131       -0.0038090150       -0.0117694463
Ti         0.0025660883       -0.0003099343       -0.0033979422
Ti         0.0105113569        0.0025085381       -0.0061780136
Ti         0.0015626960        0.0128012271       -0.0007532466
Ti        -0.0015645203        0.0065360505        0.0150200099
Ti        -0.0081031433        0.0043003097        0.0040920804
Ti        -0.0070366842        0.0045441592        0.0057701462
Ti        -0.0020403724       -0.0057141929       -0.0012480336
Ti         0.0074634495        0.0015175527       -0.0047126246
Ti         0.0055735250       -0.0074123303       -0.0020243975
Ti        -0.0031689652       -0.0033195783        0.0030517964
Ti         0.0072069467        0.0080412176       -0.0041998395
Ti        -0.0071927457       -0.0000076123       -0.0041719109
Ti         0.0088747314       -0.0103271071       -0.0003940850
Ti         0.0037800190        0.0057417531        0.0041464987
Ti        -0.0038156930       -0.0035188614        0.0054429557
Ti        -0.0022839636       -0.0020885770        0.0004098535
Ti        -0.0030801038       -0.0090764165       -0.0004099478
Ti         0.0050035056        0.0027427159        0.0056420304
Ti        -0.0085999904        0.0062141034        0.0000876321
O        -0.0008069473        0.0111344457       -0.0014817622
O         0.0033254726        0.0013405165        0.0060194215
O         0.0030488072       -0.0025545678        0.0064765716
O         0.0075244615        0.0005371597        0.0001650567
O        -0.0010652151       -0.0032131108       -0.0037043149
O         0.0010093269       -0.0069938897        0.0035067859
O         0.0017267885       -0.0052720520        0.0004869668
O         0.0077468477       -0.0010411670       -0.0022743885
O        -0.0022413660       -0.0058831720       -0.0045183825
O        -0.0015893625       -0.0110786165        0.0007895184
O        -0.0051944942       -0.0008960248        0.0077886022
O        -0.0039130012       -0.0022071850       -0.0006086882
O        -0.0028422628        0.0001907644        0.0061490502
O        -0.0001763150       -0.0006310048       -0.0005466055
O         0.0042259191       -0.0001060948        0.0000620532
O         0.0012465567       -0.0027966471        0.0011415232
O         0.0034779222       -0.0038256458        0.0000639372
O         0.0046957866       -0.0018547049       -0.0053348867
O        -0.0013399829        0.0034556523        0.0006236148
O         0.0077784034        0.0049437036        0.0063216988
O        -0.0003129190        0.0048514899        0.0088174971
O        -0.0024049332       -0.0074611435        0.0034919107
O        -0.0021222313       -0.0111042668        0.0014863802
O        -0.0007198187        0.0073387724        0.0006967942
O        -0.0029568389       -0.0041351281        0.0059748848
O        -0.0029078408        0.0016955711        0.0091510436
O         0.0062901556       -0.0017251130        0.0006119687
O         0.0013149350       -0.0011810799        0.0004212124
O         0.0013533944        0.0037093799       -0.0068924898
O        -0.0065572006        0.0017545253        0.0058570371
O         0.0031936593       -0.0010302834       -0.0071315747
O         0.0014286512        0.0015743702       -0.0044467935
O         0.0007399468       -0.0134554080       -0.0008229602
O         0.0008585566        0.0024806037       -0.0022931765
O         0.0082036494       -0.0005692249       -0.0033611570
O        -0.0022180387       -0.0005323929        0.0029672527
O         0.0017570664       -0.0013704138        0.0014806381
O        -0.0001957049        0.0010383764        0.0043627617
O        -0.0081167667       -0.0008804951        0.0000775435
O        -0.0054611461       -0.0007308239        0.0044529460
O        -0.0031195123       -0.0085350220        0.0065735236
O        -0.0039510299       -0.0029581054       -0.0037209458
O         0.0016464712        0.0052641431        0.0013283427
O         0.0002553301       -0.0139253212        0.0022945213
O        -0.0036777035        0.0023104424       -0.0020362826
O        -0.0023927990       -0.0015601461       -0.0006688736
O        -0.0022158463       -0.0004648156       -0.0060220510
O         0.0099217351       -0.0023221059        0.0016206535
O        -0.0042425111       -0.0148799520       -0.0051854688
O         0.0039315941       -0.0047604136       -0.0072098795
O         0.0027084084       -0.0004018999       -0.0061762072
O         0.0012440298       -0.0017206923       -0.0010330114
O         0.0012812203       -0.0154092786       -0.0007202389
O         0.0016171979       -0.0002317401       -0.0035388372
O        -0.0090220767       -0.0013087692        0.0022834113
O        -0.0046318922       -0.0007433645        0.0069571765
O         0.0026539667        0.0039102846        0.0035956060
O         0.0002573305       -0.0000467698        0.0019735809
O         0.0059436923       -0.0045671743        0.0057767097
O        -0.0073510948       -0.0033542659        0.0002222572
O         0.0019439996       -0.0024118087       -0.0041564600
O        -0.0051192401        0.0076025788       -0.0037048639
O        -0.0099034198       -0.0050129122        0.0044185640
O        -0.0080089005       -0.0031560461        0.0021661970
O        -0.0032623073        0.0029221804        0.0057309349
O         0.0067966094        0.0045772039        0.0001023517
O        -0.0086842273        0.0006498199        0.0042674523
O         0.0025637038       -0.0007279511        0.0000933832
O         0.0004853724       -0.0095400367        0.0034783628
O        -0.0037910026        0.0053815918       -0.0056515972
O         0.0040429012        0.0004079660       -0.0027859660
O        -0.0080411870       -0.0002776035        0.0028976567
O         0.0037846609       -0.0042855392        0.0009271915
O         0.0041346473        0.0028297502       -0.0037593849
O        -0.0060966420        0.0031620183       -0.0006709698
O         0.0008104917        0.0027634183        0.0041086353
O        -0.0019153454       -0.0089233853        0.0060454758
O        -0.0002683688       -0.0023094920        0.0034198612
O         0.0094356192       -0.0039719010       -0.0007037843
O        -0.0083850973       -0.0018643436       -0.0012655971
O         0.0010943030        0.0003462209        0.0020542586
O        -0.0014654368       -0.0096948264        0.0053558321
O        -0.0037394122        0.0028555680        0.0047082583
O        -0.0050803608        0.0001905134        0.0007143722
O         0.0027274251       -0.0017570145       -0.0172392433
O         0.0009399361       -0.0020148488        0.0019325687
O         0.0030004924        0.0028391155       -0.0021085528
O         0.0108769610        0.0000081208        0.0035545598
O        -0.0005751619        0.0053041169       -0.0040880808
O         0.0010281284        0.0005244608        0.0042456420
O         0.0005772262        0.0045126619        0.0009922862
O         0.0008930772       -0.0110968095        0.0017019026
O         0.0021941195       -0.0014670944        0.0015936440
O         0.0073855497        0.0031390820       -0.0022412667
O         0.0024135861        0.0030587728        0.0010257458
O         0.0025391065       -0.0046662058       -0.0055635857
O        -0.0006321860        0.0103419465       -0.0045949192
O         0.0042098410        0.0003683878        0.0020054529
O         0.0065988406        0.0009050129        0.0003532619
O         0.0033954058        0.0022335434       -0.0007302908
O         0.0018789870       -0.0053821373       -0.0020989530
O         0.0002140596       -0.0062049725       -0.0033500084
O         0.0101391239       -0.0015596225        0.0047381835
O         0.0017078010       -0.0012840698       -0.0001025381
O        -0.0008902167       -0.0034823279       -0.0012714087
O        -0.0027244083       -0.0070694473       -0.0004580263
O        -0.0043069205        0.0042667117        0.0008331045
O        -0.0041549774       -0.0030777817        0.0024987787
O         0.0034956879       -0.0008408689        0.0038592877
O        -0.0007415901       -0.0002892853       -0.0016431492
O         0.0008073971        0.0020920387        0.0009099740
O         0.0132866232       -0.0029840018       -0.0035238968
O         0.0004360340        0.0046129415        0.0037388701
O        -0.0047083965       -0.0024090786        0.0017804721
O         0.0030219252        0.0000837218        0.0012963381
O        -0.0054978616        0.0033538675        0.0050109460
O        -0.0015297036        0.0064586306        0.0022922311
O        -0.0045633884        0.0035211162       -0.0016377175
O         0.0028076945        0.0010671875       -0.0053500550
O        -0.0035205689        0.0102428124        0.0009054402
O        -0.0038970051        0.0023988153        0.0006365826
O        -0.0001376377       -0.0085103821       -0.0051878600
O         0.0091471193        0.0036872998        0.0005834520
O        -0.0014083810        0.0005830003        0.0021582778
O         0.0036778981       -0.0004685050       -0.0036513873
O         0.0004305278        0.0001677059        0.0007801813
O        -0.0086042995        0.0005498014       -0.0017652224
O         0.0001089537       -0.0004066002        0.0026964952
     192
 i =        3, E =     -5789.4095586268
Ti        -0.0026509069       -0.0021313209        0.0036998997
Ti         0.0030088604       -0.0007197011       -0.0024866252
Ti        -0.0034869392       -0.0038918696       -0.0077497143
Ti         0.0001880022        0.0111848067        0.0004480460
Ti         0.0032243353        0.0035570141        0.0013277557
Ti        -0.0050516394        0.0031949322       -0.0042074830
Ti        -0.0026494687        0.0011804954       -0.0013834574
Ti         0.0001678172        0.0010742333        0.0030728492
Ti        -0.0047324441       -0.0031909914       -0.0026100472
Ti         0.0009571702       -0.0043369657       -0.0044648753
Ti        -0.0060347104       -0.0016518840       -0.0007252671
Ti         0.0018886799       -0.0001529167       -0.0003715340
Ti         0.0055029246       -0.0062720559       -0.0033467299
Ti         0.0008661821        0.0058874753        0.0081413469
Ti        -0.0044949443        0.0013687990       -0.0020423856
Ti        -0.0009317859        0.0104045621       -0.0033784032
Ti        -0.0014243529        0.0019784244       -0.0052342417
Ti         0.0009450440       -0.0014615013        0.0009936869
Ti         0.0083453274        0.0082541088       -0.0021615558
Ti         0.0009084514       -0.0052455181       -0.0057343406
Ti        -0.0019218652        0.0056750682       -0.0071643698
Ti        -0.0061257423       -0.0070448997       -0.0030578022
Ti         0.0043611127        0.0032310231        0.0058001899
Ti        -0.0079670058        0.0067441933       -0.0023852590
Ti        -0.0048540318       -0.0000078949        0.0035512159
Ti        -0.0077155251        0.0004987282       -0.0039994539
Ti         0.0041620652        0.0036103920       -0.0010048924
Ti        -0.0011356757        0.0043224231        0.0005778511
Ti         0.0022059196        0.0069232554        0.0032047698
Ti         0.0028212860        0.0080987586        0.0036415792
Ti        -0.0007339980        0.0031460907        0.0027472627
Ti        -0.0052334488       -0.0004748436        0.0027906816
Ti         0.0074725953        0.0007167961       -0.0048059745
Ti        -0.0045928677        0.0031938109       -0.0026477999
Ti         0.0037156208       -0.0013131097       -0.0057951143
Ti         0.0141907058       -0.0057751186       -0.0054586852
Ti         0.0000573753       -0.0007421000        0.0031182904
Ti        -0.0027840281       -0.0003689340        0.0037774184
Ti        -0.0057527561        0.0042414033       -0.0041664841
Ti        -0.0017048244        0.0109458749       -0.0024745635
Ti        -0.0078952026        0.0015097900        0.0048755794
Ti         0.0037956841        0.0071889448        0.0008267180
Ti         0.0047726967        0.0011391448       -0.0045469252
Ti        -0.0019581985        0.0055265845        0.0023991338
Ti        -0.0000119786       -0.0033915857       -0.0058504785
Ti        -0.0019204633       -0.0019653289       -0.0022648644
Ti         0.0085943880        0.0022621134       -0.0046934606
Ti         0.0034872111        0.0068909952       -0.0003681042
Ti        -0.0012416974        0.0073523340        0.0070267272
Ti        -0.0025634432        0.0027286147        0.0005803692
Ti        -0.0038379917        0.0068582641        0.0032545974
Ti        -0.0045007129       -0.0050973598        0.0020185817
Ti         0.0024362618        0.0008751742       -0.0017627332
Ti         0.0018614943       -0.0029168185       -0.0022975887
Ti         0.0002558422       -0.0028137363        0.0017617808
Ti         0.0049354841        0.0046981448       -0.0009123633
Ti        -0.0021150200        0.0012307998       -0.0025542779
Ti         0.0065978030       -0.0123998977        0.0004123036
Ti         0.0022632985        0.0054598710        0.0046852994
Ti        -0.0033781169       -0.0019537854        0.0017311076
Ti        -0.0030860591        0.0010665236        0.0040672703
Ti        -0.0022732787       -0.0092260848       -0.0001275238
Ti         0.0041322481        0.0008168832        0.0037341292
Ti        -0.0040000838        0.0049814011       -0.0015041814
O        -0.0003290047        0.0039085471       -0.0000968716
O         0.0022150077       -0.0022965934        0.0046019341
O        -0.0046500666       -0.0014962596        0.0042593796
O         0.0020672593        0.0017868540        0.0011265757
O         0.0015267539        0.0006765985       -0.0023223307
O         0.0007671899       -0.0040921304        0.0014865970
O         0.0026826541       -0.0015101280        0.0029070373
O         0.0045841657        0.0009206857       -0.0005081883
O         0.0023709417       -0.0067275940       -0.0025121384
O        -0.0025078212       -0.0040270289       -0.0001104700
O         0.0020069190       -0.0001920154        0.0033214508
O         0.0032932983       -0.0011601814       -0.0000914166
O        -0.0029274776       -0.0012612928        0.0047286744
O        -0.0015222474       -0.0001118078        0.0018594275
O         0.0035047080       -0.0019664406        0.0017361569
O         0.0029761559       -0.0014948346        0.0008080265
O         0.0015570489        0.0015151070       -0.0005243717
O         0.0040123517       -0.0005817652       -0.0030329872
O        -0.0021897567        0.0016338558        0.0012104366
O         0.0045124559        0.0020359730        0.0022538710
O         0.0009274411        0.0011754082        0.0034284904
O         0.0029130241        0.0000382360        0.0039922055