     192
 i =        1, E =     -5789.2820901993
Ti        -0.0621874526        0.0807652415        0.0703005945
Ti         1.8681743249        1.9250637041        4.9013472484
Ti         0.0477909330        2.0314313650        2.5327894554
Ti         1.8657850726       -0.0486815636        7.1702623247
Ti        -0.0355554044        3.8351956451       -0.0517911064
Ti         1.9506328438       13.1933011522        4.8351898198
Ti        11.2876791824        1.9813847288        2.4523536345
Ti         5.6085533969       -0.0907203546        7.2237612552
Ti         1.9068434027        3.8174218718        7.2362753230
Ti         0.0226702511       13.3528195785        2.4719046422
Ti         5.6785648051        1.8400863884        4.8281387778
Ti        11.3045904492        0.1162333262       -0.0471975348
Ti         3.6751232141        0.0991479735        0.0470064645
Ti        13.1230340064        1.7686340478        4.7030778202
Ti        13.2695802579       -0.0449974040        7.1550219135
Ti         3.7493373505        1.8013729572        2.5252777071
Ti         1.9729877632        5.6397008085        4.8506441724
Ti        -0.0073247121       11.5352251866        0.0154935298
Ti        -0.0238658011        5.7189672913        2.4856937845
Ti         1.8924796518       11.3134177395        7.3620126040
Ti         0.0801532072        7.5378869938        0.0615380806
Ti         2.0357608364        9.5181834702        4.9040963917
Ti         7.4978838841        1.9590375940        2.3485891299
Ti         9.4718117673       -0.1328836675        7.2251955548
Ti         1.9451703782        7.5818321745        7.1613576187
Ti         0.1330458179        9.5808365714        2.4494520745
Ti         9.3275223171        1.8085560833        4.7695794025
Ti         7.4630255666       -0.0611850067       -0.0810160614
Ti         3.7278813343        3.7841379306       -0.0075974844
Ti        13.2409454989       13.1224476986        4.7420261320
Ti        11.3736074859        5.7265670986        2.3789658486
Ti         5.6833909394       11.3242196619        7.1513480530
Ti        13.1738634518        3.6803232599        7.2386760243
Ti         3.7709453231       13.1608646379        2.4438821339
Ti         5.6826172706        5.7191903302        4.8431082734
Ti        11.2211133868       11.3931936687        0.1102979489
Ti        11.2841805249       13.3303904057        2.3543074835
Ti         5.6631643819        3.7274611927        7.1273989857
Ti         3.8866347578       11.4219327982        0.0426177719
Ti        13.2910607582        5.5829172881        4.9081640747
Ti         5.7994468684       13.2104640481        4.8110500942
Ti        11.2656608703        3.7867671398       -0.0776315361
Ti        13.0964850838       11.3815029760        7.2655697803
Ti         3.7888151550        5.6040390825        2.3951690432
Ti         3.7992927362        7.5572857644        0.0442836797
Ti        13.3104967512        9.4229914679        4.8368432298
Ti         7.5148937173        5.6790878713        2.3886445897
Ti         9.4286347022       11.1385910329        7.1700614695
Ti        13.3073469623        7.5434376066        7.2274603894
Ti         3.8764739763        9.4385297852        2.3405404905
Ti         9.5227653206        5.5627011367        4.7062595772
Ti         7.5326475330       11.3416225960        0.0747414395
Ti        11.4090637682        9.4466556227        2.4139149407
Ti         5.6614846456        7.6081705516        7.2033044870
Ti         5.7811788259        9.4216494050        4.7398674394
Ti        11.3158863643        7.5793256859        0.0039247205
Ti         9.4287222475        3.6447861813        7.1647554339
Ti         7.5404681644       13.3100920220        2.4039880040
Ti         7.4612873962        3.7962712237       -0.0622120890
Ti         9.5155289335       13.2412901923        4.7827731869
Ti         7.5962115323        7.5312231870       -0.0548228299
Ti         9.5355867265        9.3933522617        4.7593075521
Ti         7.6359477794        9.4142285427        2.3224549071
Ti         9.5176478678        7.3570226193        7.1438214993
O         0.0570636934        0.0873047152        2.0966859818
O         1.6579738702        1.9347421958        6.7412742918
O        -0.0697341227        2.0016090459        4.4198971585
O         1.7978320023        0.1516895315        9.2376783476
O         1.8051073003       -0.0159871465        5.2558127105
O        -0.1557289834        2.0029003810        0.4884411214
O         1.8679876534        2.1834752857        2.8297304716
O        -0.0677596153       -0.0505649986        7.6211401799
O        -0.0284068274        3.9071367658        2.0817721061
O         1.9979126406       13.2666320219        6.8290002110
O        11.2854934754        1.8261069739        4.3185268502
O         5.6297740779       -0.0229824001        9.2725461515
O         2.1177879004        3.7585545867        5.1755202047
O         0.0565277394       13.3498339727        0.4272410378
O         5.6314226756        1.8458240157        2.8335346199
O        11.2876790880        0.0700467918        7.5579035987
O         3.7131632814        0.1238837220        7.6864789581
O        13.1897623238        1.8697426917        2.8265298241
O        13.1745291159       -0.1123571937        9.2205539074
O         3.7121917813        1.6406473033        4.3826601510
O         1.9087130817        5.6241979852        6.7445631785
O         0.0652230528       11.4663187722        1.9372256470
O         0.0821104901        5.7421902974        0.4545780512
O         1.9186197797       11.3180019109        5.2300644376
O         0.1208024397        7.7098457230        1.9685963450
O         2.1715205219        9.4640160667        6.7785192826
O         7.4574424338        1.8591459087        4.3605864483
O         9.4154581897        0.0395539038        9.2043667999
O         1.8181359536        7.5674814342        5.2719926427
O         0.1144214061        9.5635395195        0.2865472984
O         9.3692519506        2.0450637965        2.8390248574
O         7.4858674220       -0.1620457727        7.6964082280
O         3.7516057501        0.0557648513        2.0387230546
O        13.2158651745        1.8496112383        6.7852780704
O         0.0068977639        5.6057022845        4.4916478852
O         1.9327430174       11.3620218622        9.2704658863
O        13.1685335569       -0.0318295508        5.1286665713
O         3.7072411739        1.9556979813        0.4324468153
O         1.9447592876        5.8094484894        2.9089354595
O         0.0924588115       11.4302123138        7.5614921138
O        11.3484783690        2.0045083407        0.2846873798
O         5.8176621982       -0.0829164750        5.2735424389
O         5.5598142324        1.8279766420        6.7884207970
O        11.2679951563        0.1378177574        1.8963512160
O         1.9048315387        3.8372779689        9.2084556471
O        -0.0162397668       13.1508519407        4.4570833050
O         0.0225030924        3.8054564636        7.6758434671
O         1.8847444111       13.2363066222        2.8653819828
O         3.9747972880        3.8341077394        2.0705099879
O        13.1012488071       13.2710985255        6.7333772319
O        11.3744821931        5.6629895448        4.3905148681
O         5.6931598073       11.4762714252        9.2274925181
O        13.1767824240        3.8014853363        5.2142547345
O         3.6348726331       13.3102929109        0.5039713077
O         5.7349794159        5.9201569388        2.7345532434
O        11.3037355410       11.3388339157        7.6529855629
O        11.2481693091       13.2734530779        0.4067118842
O         5.4844705168        3.7223738193        5.1830259494
O         3.7877221778       11.3683241537        7.6752379041
O        13.2760491026        5.9279386693        2.8740157167
O         5.5104839509       13.1985361748        6.7852879467
O        11.5504713912        3.8331667346        1.9197246612
O        13.2221015819       11.4132682133        9.2096589964
O         3.8657467883        5.7142291610        4.4112270992
O         5.7629261177        5.6351026253        6.7368530129
O        11.1164262999       11.4550724724        2.0052646406
O        13.2059490065        3.9165528598        9.1367781390
O         3.8001794094       13.2152080024        4.3928869857
O        11.3622673489        5.7385374566        0.4053967396
O         5.7840349880       11.3031744088        5.2327111404
O         3.7484445687        3.7213214078        7.6443135037
O        13.2107550069       13.2122463826        2.7114958971
O        13.0461329650       11.4073058637        5.1494368671
O         3.7140738390        5.6750914309        0.4273907032
O         5.6955332093       13.1644302865        2.8662199223
O        11.2950880439        3.5620126546        7.5540150418
O         3.9682970848       11.4038489508        1.9693881609
O        13.2111017387        5.6422062852        6.9093868673
O        11.2910020930       13.3563664935        4.3250323704
O         5.6625135144        3.8132327975        9.1436276857
O         3.7899186771        7.6299865778        1.9278500335
O        13.3110314077        9.5844766960        6.7550684700
O         7.5753993798        5.5257370583        4.3222004343
O         9.4238269778       11.3253190079        9.2248952057
O        13.2586958438        7.5867643288        5.4145867765
O         3.8146251124        9.5220385565        0.3568749834
O         9.5515233362        5.5785227354        2.7850860109
O         7.5266026426       11.3530334109        7.5749054410
O        11.3483257390        9.4940862791        0.4026131432
O         5.7288277902        7.5675928427        5.1617628734
O         5.5380213048        9.4188372770        6.7586247233
O        11.2199169204        7.6046304171        2.0190243596
O         9.4327859093        3.9543604882        9.1504942655
O         7.5935635871       13.0391764258        4.4542295177
O         7.5070253664        3.6416454365        7.5497587968
O         9.4296425366       13.4771971009        2.8562574041
O         7.4410701859       -0.0351000385        2.0411480231
O         9.2084727125        1.8068036397        6.7325505183
O         0.0807238244        9.3672342662        4.4194492402
O         1.9327674225        7.5646180090        9.2010277949
O         9.3077354329       -0.0334388186        5.1895039086
O         7.6417688579        1.9034073222        0.4350856855
O         1.9628417505        9.7059478488        2.7736871022
O         0.0413544540        7.5643842751        7.6165870566
O         7.5284376531        3.7995053943        1.9528640030
O         9.5022792085       13.2049593610        6.7481853238
O        11.4459424862        9.2263552365        4.3819104740
O         5.6692452655        7.7041449975        9.1301610657
O         9.4836683066        3.6893416016        5.1784826899
O         7.5692966656       13.2192565674        0.4128069255
O         5.7368147360        9.4026554171        2.7059689591
O        11.3060231104        7.6461945716        7.5914865567
O         3.7914961859        7.3599274451        7.5940416305
O        13.3249333206        9.6195469006        2.8070345995
O        13.2599942538        7.6684594030        9.3378596820
O         3.8519997741        9.4286204049        4.3028601899
O         9.6145481641        5.5290610945        6.7585682440
O         7.6445036413       11.3272936553        1.9675523818
O         7.3384296353        5.6938153484        0.3655853144
O         9.5531975626       11.2293898363        5.1921787924
O         7.8711316022        7.5881039709        1.9267692413
O         9.4460842198        9.4120487572        6.8139828511
O         7.5634279577        9.3784396798        4.3286733463
O         9.4685026755        7.4327720291        9.2233973079
O         9.3477648807        7.4837214551        5.2444026738
O         7.5170497425        9.4649597025        0.3583211260
O         9.5719297102        9.5131452407        2.8679385657
O         7.5985803127        7.5406414005        7.5861532391
     192
 i =        2, E =     -5789.3729593396
Ti        -0.0581935741        0.0988096369        0.0380573287
Ti         1.8562372893        1.9289595985        4.8856392847
Ti         0.0435210655        2.0123153226        2.4865239677
Ti         1.8462396582       -0.0678929146        7.1887765275
Ti        -0.0592512378        3.8437456370       -0.0331649212
Ti         1.9546714824       13.2052641467        4.8390182218
Ti        11.3005505453        1.9579879019        2.4374863665
Ti         5.5997029958       -0.0748869691        7.2131003206
Ti         1.9047770372        3.8052550855        7.2467941143
Ti         0.0090764998       13.3348496730        2.4559137223
Ti         5.6783569647        1.8523196703        4.8138570511
Ti        11.2954882941        0.0950225627       -0.0345520957
Ti         3.6583093228        0.0834617269        0.0337421117
Ti        13.1652456142        1.7891963407        4.7324790840
Ti        13.2683700710       -0.0410484051        7.1775653541
Ti         3.7619497901        1.8280828607        2.5128579824
Ti         1.9640685902        5.6594960964        4.8323381289
Ti        -0.0073851437       11.4932859179        0.0180363623
Ti        -0.0183217952        5.7119941893        2.4751393241
Ti         1.8717188140       11.3415232185        7.3342189900
Ti         0.0516237579        7.5638347172        0.0582320548
Ti         2.0159506338        9.5207883295        4.8603039534
Ti         7.5008906633        1.9552101254        2.3305156670
Ti         9.4849324366       -0.1153844054        7.2274933088
Ti         1.9380386165        7.5732600100        7.1734510029
Ti         0.1079375602        9.5548383513        2.4379110423
Ti         9.3492649445        1.8199098789        4.7898683230
Ti         7.4665436836       -0.0334843784       -0.0686728400
Ti         3.7386138373        3.7696104051        0.0006314282
Ti        13.2361259348       13.1125973144        4.7753374044
Ti        11.3624484398        5.7145240396        2.3884877475
Ti         5.6743402698       11.3181563334        7.1705222970
Ti        13.1658503491        3.7039383174        7.2334886448
Ti         3.7807947805       13.1904401292        2.4441017761
Ti         5.6976072219        5.6993989661        4.8386994070
Ti        11.2257991291       11.3901910262        0.0816017298
Ti        11.3048093524       13.3115001610        2.3487690421
Ti         5.6672513647        3.7274385343        7.1386499013
Ti         3.8722423396       11.3948329412        0.0233011016
Ti        13.2800546086        5.5907338397        4.8763139202
Ti         5.7722160823       13.2056094655        4.8051736756
Ti        11.2598022839        3.7944706534       -0.0465933502
Ti        13.1248573468       11.3528863250        7.2659739239
Ti         3.7997139616        5.6281897083        2.3917054452
Ti         3.7942650148        7.5801169655        0.0336517297
Ti        13.3000240379        9.4330077846        4.8339898344
Ti         7.4903910945        5.6860329683        2.4124944019
Ti         9.4083144912       11.1750214798        7.1674550938
Ti        13.3028804544        7.5285636499        7.1907019815
Ti         3.8495528016        9.4311293156        2.3540672344
Ti         9.5188869158        5.5738832368        4.7220261235
Ti         7.5658304232       11.3530750867        0.0490244093
Ti        11.4042660930        9.4531039802        2.4402873479
Ti         5.6630684049        7.5834156782        7.2240457603
Ti         5.7689847585        9.4221435166        4.7541045188
Ti        11.3209243588        7.5894000163       -0.0011446148
Ti         9.4370228072        3.6623643558        7.1736553341
Ti         7.5408831460       13.3281533811        2.3904208435
Ti         7.4739556623        3.7965195191       -0.0592972125
Ti         9.4985587701       13.2354504768        4.7858287833
Ti         7.6083203431        7.5300265323       -0.0636845813
Ti         9.5330967380        9.4205242974        4.7743724843
Ti         7.6118201323        9.4148825102        2.3301567061
Ti         9.5180587982        7.3872396129        7.1490057072
O         0.0579291528        0.0657202733        2.0355130283
O         1.7445120171        1.9166722997        6.7714354828
O        -0.0217534330        1.9825874709        4.3964288591
O         1.7975062694        0.1292807923        9.2165129285
O         1.8111635097       -0.0117417852        5.2590576384
O        -0.1266301656        2.0081715534        0.4407779457
O         1.8714480247        2.1096383111        2.8040159629
O        -0.0503807019       -0.0570298564        7.6352281957
O        -0.0610119760        3.8933879581        2.0695330416
O         1.9926729267       13.2417678168        6.8402432635
O        11.2926002076        1.8436701093        4.3503140892
O         5.6027518770        0.0146947816        9.2567114743
O         2.0804862992        3.7792020675        5.1849645463
O         0.0460290523       13.3431871822        0.4120259056
O         5.6349316287        1.9116521644        2.8144577735
O        11.3106982300        0.0800690777        7.5644271781
O         3.7021947804        0.0925697761        7.6635364626
O        13.1915569934        1.8943852604        2.8294709173
O        13.1857524617       -0.0437000183        9.1931994102
O         3.7207259877        1.6600397776        4.4059745465
O         1.8716890939        5.6375592283        6.7739072533
O         0.0220020003       11.4449074264        1.9437255718
O         0.0343761497        5.7432847291        0.4450131652
O         1.8970538608       11.3362906295        5.2343836623
O         0.1288191875        7.6789404240        1.9805524761
O         2.0640636830        9.4680535198        6.7948602833
O         7.4955739064        1.9127855625        4.3846226420
O         9.4194003592        0.0203798458        9.1801408868
O         1.8885767988        7.5671456027        5.2618767599
O         0.0837093736        9.5356802758        0.3107628563
O         9.3824368221        1.9929269733        2.8138185622
O         7.4786345202       -0.1358316024        7.6644288082
O         3.7355394945        0.0585599068        2.0373354719
O        13.2704410798        1.8664460266        6.7950395135
O         0.0144141037        5.5927496172        4.4689030208
O         1.9034210433       11.3611372721        9.2553328455
O        13.2310378710       -0.0075302812        5.1647090778
O         3.7149448847        1.9345644307        0.4380608080
O         1.9417366618        5.7598693290        2.8622190955
O         0.0394905117       11.4288933225        7.5851557241
O        11.3245240697        1.9823839338        0.3071618995
O         5.7955893686       -0.0555651279        5.2515584699
O         5.6288082609        1.8268703696        6.7883634385
O        11.2959100796        0.1287454214        1.9229455133
O         1.8841145289        3.8198491976        9.2414024322
O        -0.0080855776       13.2042659492        4.4210740242
O        -0.0001220916        3.7902855221        7.6714927013
O         1.8848492962       13.2428295855        2.8585365735
O         3.9066388045        3.8443737076        2.0636242934
O        13.1534313521       13.2347804822        6.7843065164
O        11.3678160092        5.6699440481        4.4113226451
O         5.7015856982       11.4640121379        9.2300769717
O        13.1563365017        3.8011719673        5.2176580907
O         3.6451128642       13.2938032945        0.4674998529
O         5.7082948762        5.8798391840        2.7607846998
O        11.3151776826       11.3343253578        7.6068442987
O        11.2670648888       13.2762919912        0.3829948289
O         5.5730149444        3.7231544373        5.1792998497
O         3.7907040050       11.3744835888        7.6612204418
O        13.2842086134        5.9085410102        2.8655662662
O         5.5177943756       13.2048398469        6.8148194732
O        11.4854653937        3.8076507590        1.9630539603
O        13.2386080601       11.4449722877        9.2041390323
O         3.8548606500        5.7233816044        4.4019850078
O         5.7589389378        5.6330328010        6.7433910680
O        11.1996666322       11.4081530454        2.0096926350
O        13.2021916161        3.9009178681        9.1540697525
O         3.7875279247       13.2358648313        4.4211082247
O        11.4068346978        5.7430671568        0.3988352895
O         5.7435178654       11.2903272166        5.2403917797
O         3.7574212699        3.7197215369        7.6488915746
O        13.2293030794       13.2638122080        2.7645426166
O        13.0767116031       11.3441899433        5.1539306918
O         3.7426429215        5.6778808687        0.4155063849
O         5.6936815095       13.2315384693        2.8487026104
O        11.3014712802        3.5759076796        7.5724613417
O         3.9266031027       11.3966691733        1.9922970577
O        13.2153473989        5.6542849039        6.8511434751
O        11.3074989446       13.3200325867        4.3475383376
O         5.6581603829        3.7852780425        9.1638087672
O         3.7594253723        7.6057716103        1.9479829260
O        13.3162305472        9.5406241569        6.7846012270
O         7.5823143286        5.5137921865        4.3386221436
O         9.4333873091       11.3118563010        9.1816630999
O        13.2899872263        7.5740368045        5.3349844651
O         3.7966636886        9.5064701859        0.3688883052
O         9.5063664900        5.5755394208        2.7866143373
O         7.5182128235       11.3232773749        7.5614114648
O        11.3639329029        9.4835351561        0.4584094543
O         5.7478943928        7.5522375854        5.1724175353
O         5.5805383113        9.4048507100        6.7752552678
O        11.2926540336        7.6166902683        2.0062898858
O         9.4144210745        3.9398514135        9.1564848768
O         7.5741214385       13.0811202703        4.4155341482
O         7.5219470187        3.6899476311        7.5672322185
O         9.4260455034       13.3951437972        2.8180477724
O         7.4771402015        0.0068729249        2.0420658775
O         9.2765334860        1.8212048454        6.7652624152
O         0.0550859073        9.4284350299        4.3975099520
O         1.9199409167        7.6356784380        9.2131993477
O         9.3439331039       -0.0249589896        5.1993777096
O         7.5749920766        1.9129626335        0.4015118855
O         1.9387579901        9.6479893623        2.7642975225
O         0.0328371692        7.5842040613        7.6171727603
O         7.4770597221        3.8194017517        1.9520232889
O         9.4855138429       13.2116020320        6.7649906276
O        11.4170138662        9.2396453049        4.4139900518
O         5.6747985652        7.6646223603        9.1604183723
O         9.4574859606        3.7121368936        5.1879974335
O         7.5921866985       13.2540064706        0.4244068642
O         5.7283583236        9.4070535317        2.7385900100
O        11.3391931912        7.6349619408        7.6292057060
O         3.7856506134        7.3796713338        7.5916478607
O        13.2908880791        9.6076987887        2.8022030670
O        13.2548710946        7.6573778803        9.2519852993
O         3.8417959875        9.3926384570        4.3279010104
O         9.5449741061        5.5636183797        6.7691133328
O         7.6691827090       11.3318650252        1.9665027520
O         7.4032291803        5.6896093258        0.3931056916
O         9.5601959961       11.2547770675        5.2018202439
O         7.7980511636        7.5588237189        1.9473189792
O         9.4606819465        9.4063283703        6.8410726286
O         7.5833552545        9.3881033979        4.3487462259
O         9.4678021847        7.4844243340        9.1866279558
O         9.3955785874        7.4923971254        5.2242374103
O         7.5313027852        9.4523754469        0.3577052860
O         9.5299738460        9.5156540515        2.8591457790
O         7.5884491510        7.5183211904        7.5871893626
     192
 i =        3, E =     -5789.4095586268
Ti        -0.0496831307        0.0959973311        0.0217259039
Ti         1.8620555873        1.9217046572        4.8753222572
Ti         0.0389473461        2.0080587457        2.4609708883
Ti         1.8500486602       -0.0564581951        7.1983993684
Ti        -0.0701067659        3.8385077101       -0.0278130596
Ti         1.9505427547       13.2209456545        4.8282325311
Ti        11.3224718945        1.9453838801        2.4335958606
Ti         5.6049903308       -0.0546547866        7.2109730600
Ti         1.8990708823        3.7964172209        7.2493631970
Ti         0.0049765151       13.3288557646        2.4366206518
Ti         5.6829769509        1.8584631833        4.8155908684
Ti        11.2874783377        0.0832019123       -0.0291626695
Ti         3.6665197263        0.0804406147        0.0262694855
Ti        13.1844571249        1.8111951985        4.7617719581
Ti        13.2536095865       -0.0318419335        7.1958489006
Ti         3.7691265955        1.8371809371        2.4868070127
Ti         1.9571269411        5.6688814600        4.8258934956
Ti        -0.0227625576       11.4616892423        0.0148360526
Ti        -0.0132388696        5.7051882624        2.4638588999
Ti         1.8590610665       11.3513175155        7.3039530345
Ti         0.0331063728        7.5903245580        0.0450326665
Ti         1.9934438104        9.5206270271        4.8400759343
Ti         7.5158524806        1.9462348886        2.3346128029
Ti         9.4740094396       -0.0968032514        7.2209294948
Ti         1.9247086770        7.5662383309        7.1755707185
Ti         0.0890562824        9.5280572653        2.4369267886
Ti         9.3649610145        1.8352111441        4.7882414389
Ti         7.4668070639       -0.0094523076       -0.0585380882
Ti         3.7442044657        3.7713611175        0.0081206745
Ti        13.2388050927       13.1357709860        4.7792780893
Ti        11.3643225389        5.7087355885        2.3952342919
Ti         5.6691743895       11.3197215739        7.1861561678
Ti        13.1784932637        3.7182101048        7.2207591701
Ti         3.7776197023       13.2135517714        2.4257274288
Ti         5.6996181560        5.6835858814        4.8388071006
Ti        11.2425640902       11.3912162963        0.0573137260
Ti        11.3232154705       13.2993170543        2.3652770867
Ti         5.6647398875        3.7336320974        7.1534838124
Ti         3.8485331054       11.3884458059        0.0172464314
Ti        13.2746267332        5.5944351755        4.8545099956
Ti         5.7512340743       13.2047345887        4.7933414803
Ti        11.2657975026        3.7942902541       -0.0232335394
Ti        13.1597584112       11.3309271904        7.2739599914
Ti         3.7926068236        5.6274610199        2.3917939861
Ti         3.7867659866        7.5893436785        0.0152412246
Ti        13.2983736864        9.4385516783        4.8324667844
Ti         7.4959126467        5.6910216391        2.4098328735
Ti         9.4142766150       11.2067278907        7.1629535522
Ti        13.3032300361        7.5248419888        7.1800976489
Ti         3.8303523309        9.4317718295        2.3771001027
Ti         9.5027097640        5.5852800607        4.7393925549
Ti         7.5718731973       11.3481120249        0.0321911277
Ti        11.4104746803        9.4543315589        2.4313096529
Ti         5.6716665217        7.5631920316        7.2316419627
Ti         5.7560009413        9.4170621477        4.7736073115
Ti        11.3406874385        7.5955110017       -0.0140117993
Ti         9.4342493212        3.6835759867        7.1808072856
Ti         7.5478623054       13.3333484474        2.3796568748
Ti         7.4826879519        3.8051485077       -0.0526388527
Ti         9.4915685378       13.2296835442        4.7899237381
Ti         7.6109237538        7.5323834003       -0.0649766421
Ti         9.5253187930        9.4296906666        4.7720846709
Ti         7.6071892514        9.4324121300        2.3485854402
Ti         9.5122957994        7.4274165763        7.1567128554
O         0.0501973494        0.0735270925        2.0061201742
O         1.7977320691        1.9149159637        6.7878227017
O         0.0064031877        1.9605145268        4.3950347640
O         1.8150735010        0.1241221080        9.2120666859
O         1.8051506494       -0.0144669877        5.2573889176
O        -0.1137235858        1.9940736309        0.4228934979
O         1.8728571678        2.0474472393        2.7931738356
O        -0.0368335736       -0.0636092120        7.6242427270
O        -0.0915260995        3.8804347705        2.0451873124
O         1.9748470843       13.2312180467        6.8435194889
O        11.2923898715        1.8507204841        4.3761056860
O         5.5900005730        0.0132526806        9.2489372049
O         2.0454071527        3.7839058895        5.2024691938
O         0.0375876155       13.3263269964        0.3989054401
O         5.6438320355        1.9424477346        2.8096851492
O        11.3084997175        0.0647633166        7.5678791766
O         3.7123854960        0.0548884550        7.6563272474
O        13.2051554787        1.8895308509        2.8360757128
O        13.1890532344        0.0059363119        9.1877131514
O         3.7469267134        1.7100241519        4.4096604930
O         1.8549745683        5.6496258941        6.8018827590
O        -0.0173044014       11.4208400002        1.9507113620