 DBCSR| CPU Multiplication driver                                           XSMM (U)
 DBCSR| Multrec recursion limit                                              512 (U)
 DBCSR| Multiplication stack size                                           1000 (D)
 DBCSR| Maximum elements for images                                    UNLIMITED (U)
 DBCSR| Multiplicative factor virtual images                                   1 (U)
 DBCSR| Use multiplication densification                                       T (D)
 DBCSR| Multiplication size stacks                                             3 (U)
 DBCSR| Use memory pool for CPU allocation                                     F (U)
 DBCSR| Number of 3D layers                                               SINGLE (U)
 DBCSR| Use MPI memory allocation                                              F (U)
 DBCSR| Use RMA algorithm                                                      F (U)
 DBCSR| Use Communication thread                                               T (U)
 DBCSR| Communication thread load                                             87 (D)
 DBCSR| MPI: My process id                                                     0
 DBCSR| MPI: Number of processes                                             128
 DBCSR| OMP: Current number of threads                                         1
 DBCSR| OMP: Max number of threads                                             1
 DBCSR| Split modifier for TAS multiplication algorithm                  1.0E+00 (U)


  **** **** ******  **  PROGRAM STARTED AT               2025-06-16 15:42:58.257
 ***** ** ***  *** **   PROGRAM STARTED ON                             nid004415
 **    ****   ******    PROGRAM STARTED BY                                cahart
 ***** **    ** ** **   PROGRAM PROCESS ID                                129564
  **** **  *******  **  PROGRAM STARTED IN /mnt/lustre/a2fs-work2/work/e05/e05/c
                                           ahart/postdoc2/work/group/tio2/anatas
                                           e/cell-441/geo-opt/mp-390/hole/from-n
                                           eutral/pbe-u-o/u-5.0

 CP2K| version string:                                       CP2K version 2024.3
 CP2K| source code revision number:                                  git:6712648
 CP2K| cp2kflags: omp libint fftw3 libxc libgrpp elpa parallel scalapack cosma x
 CP2K|            smm plumed2 spglib mkl sirius libvori libbqb libvdwxc hdf5
 CP2K| is freely available from                            https://www.cp2k.org/
 CP2K| Program compiled at                       Thu 12 Sep 2024 10:20:47 AM BST
 CP2K| Program compiled on                                                  ln04
 CP2K| Program compiled for                                                local
 CP2K| Data directory path    /mnt/lustre/a2fs-work1/work/y07/shared/apps/core/c
 CP2K| Input file name                                                 input.inp

 GLOBAL| Force Environment number                                              1
 GLOBAL| Basis set file name                                        BASIS_MOLOPT
 GLOBAL| Potential file name                                      GTH_POTENTIALS
 GLOBAL| MM Potential file name                                     MM_POTENTIAL
 GLOBAL| Coordinate file name                                         system.xyz
 GLOBAL| Method name                                                        CP2K
 GLOBAL| Project name                                                       tio2
 GLOBAL| Run type                                                        GEO_OPT
 GLOBAL| FFT library                                                       FFTW3
 GLOBAL| Diagonalization library                                            ELPA
 GLOBAL| DGEMM library                                                      BLAS
 GLOBAL| Minimum number of eigenvectors for ELPA usage                        16
 GLOBAL| Orthonormality check for eigenvectors                          DISABLED
 GLOBAL| Matrix multiplication library                                     COSMA
 GLOBAL| All-to-all communication in single precision                          F
 GLOBAL| FFTs using library dependent lengths                                  F
 GLOBAL| Grid backend                                                       AUTO
 GLOBAL| Global print level                                               MEDIUM
 GLOBAL| MPI I/O enabled                                                       T
 GLOBAL| Total number of message passing processes                           128
 GLOBAL| Number of threads for this process                                    1
 GLOBAL| This output is from process                                           0
 GLOBAL| Stack size for threads created by OpenMP (OMP_STACKSIZE)        default
 GLOBAL| CPU model name                          AMD EPYC 7742 64-Core Processor
 GLOBAL| CPUID                                                              1002

 MEMORY| system memory details [Kb]
 MEMORY|                        rank 0           min           max       average
 MEMORY| MemTotal            263341976     263341976     263341976     263341976
 MEMORY| MemFree             236229792     236229036     236229792     236229260
 MEMORY| Buffers                     0             0             0             0
 MEMORY| Cached                1598784       1598484       1599976       1599594
 MEMORY| Slab                  5146900       5146848       5147036       5146990
 MEMORY| SReclaimable           113980        113972        114016        114004
 MEMORY| MemLikelyFree       237942556     237942248     237943028     237942859


 *** Fundamental physical constants (SI units) ***

 *** Literature: B. J. Mohr and B. N. Taylor,
 ***             CODATA recommended values of the fundamental physical
 ***             constants: 2006, Web Version 5.1
 ***             http://physics.nist.gov/constants

 Speed of light in vacuum [m/s]                             2.99792458000000E+08
 Magnetic constant or permeability of vacuum [N/A**2]       1.25663706143592E-06
 Electric constant or permittivity of vacuum [F/m]          8.85418781762039E-12
 Planck constant (h) [J*s]                                  6.62606896000000E-34
 Planck constant (h-bar) [J*s]                              1.05457162825177E-34
 Elementary charge [C]                                      1.60217648700000E-19
 Electron mass [kg]                                         9.10938215000000E-31
 Electron g factor [ ]                                     -2.00231930436220E+00
 Proton mass [kg]                                           1.67262163700000E-27
 Fine-structure constant                                    7.29735253760000E-03
 Rydberg constant [1/m]                                     1.09737315685270E+07
 Avogadro constant [1/mol]                                  6.02214179000000E+23
 Boltzmann constant [J/K]                                   1.38065040000000E-23
 Atomic mass unit [kg]                                      1.66053878200000E-27
 Bohr radius [m]                                            5.29177208590000E-11

 *** Conversion factors ***

 [u] -> [a.u.]                                              1.82288848426455E+03
 [Angstrom] -> [Bohr] = [a.u.]                              1.88972613288564E+00
 [a.u.] = [Bohr] -> [Angstrom]                              5.29177208590000E-01
 [a.u.] -> [s]                                              2.41888432650478E-17
 [a.u.] -> [fs]                                             2.41888432650478E-02
 [a.u.] -> [J]                                              4.35974393937059E-18
 [a.u.] -> [N]                                              8.23872205491840E-08
 [a.u.] -> [K]                                              3.15774647902944E+05
 [a.u.] -> [kJ/mol]                                         2.62549961709828E+03
 [a.u.] -> [kcal/mol]                                       6.27509468713739E+02
 [a.u.] -> [Pa]                                             2.94210107994716E+13
 [a.u.] -> [bar]                                            2.94210107994716E+08
 [a.u.] -> [atm]                                            2.90362800883016E+08
 [a.u.] -> [eV]                                             2.72113838565563E+01
 [a.u.] -> [Hz]                                             6.57968392072181E+15
 [a.u.] -> [1/cm] (wave numbers)                            2.19474631370540E+05
 [a.u./Bohr**2] -> [1/cm]                                   5.14048714338585E+03
 

 CELL_TOP| Volume [angstrom^3]:                                      2198.132028
 CELL_TOP| Vector a [angstrom    15.120     0.000     0.000   |a| =    15.120000
 CELL_TOP| Vector b [angstrom     0.000    15.120     0.000   |b| =    15.120000
 CELL_TOP| Vector c [angstrom     0.000     0.000     9.615   |c| =     9.615020
 CELL_TOP| Angle (b,c), alpha [degree]:                                90.000000
 CELL_TOP| Angle (a,c), beta  [degree]:                                90.000000
 CELL_TOP| Angle (a,b), gamma [degree]:                                90.000000
 CELL_TOP| Requested initial symmetry:                       MONOCLINIC_GAMMA_AB
 CELL_TOP| Numerically orthorhombic:                                         YES
 CELL_TOP| Periodicity                                                       XYZ

 *** WARNING in atoms_input.F:123 :: Overwriting coordinates. Active    ***
 *** coordinates read from &COORD section. Active coordinates READ from ***
 *** &COORD section                                                     ***


 GENERATE|  Preliminary Number of Bonds generated:                             0
 GENERATE|  Achieved consistency in connectivity generation.

 CELL| Volume [angstrom^3]:                                          2198.132028
 CELL| Vector a [angstrom]:      15.120     0.000     0.000   |a| =    15.120000
 CELL| Vector b [angstrom]:       0.000    15.120     0.000   |b| =    15.120000
 CELL| Vector c [angstrom]:       0.000     0.000     9.615   |c| =     9.615020
 CELL| Angle (b,c), alpha [degree]:                                    90.000000
 CELL| Angle (a,c), beta  [degree]:                                    90.000000
 CELL| Angle (a,b), gamma [degree]:                                    90.000000
 CELL| Requested initial symmetry:                           MONOCLINIC_GAMMA_AB
 CELL| Numerically orthorhombic:                                             YES
 CELL| Periodicity                                                           XYZ

 CELL_REF| Volume [angstrom^3]:                                      2198.132028
 CELL_REF| Vector a [angstrom    15.120     0.000     0.000   |a| =    15.120000
 CELL_REF| Vector b [angstrom     0.000    15.120     0.000   |b| =    15.120000
 CELL_REF| Vector c [angstrom     0.000     0.000     9.615   |c| =     9.615020
 CELL_REF| Angle (b,c), alpha [degree]:                                90.000000
 CELL_REF| Angle (a,c), beta  [degree]:                                90.000000
 CELL_REF| Angle (a,b), gamma [degree]:                                90.000000
 CELL_REF| Requested initial symmetry:                       MONOCLINIC_GAMMA_AB
 CELL_REF| Numerically orthorhombic:                                         YES
 CELL_REF| Periodicity                                                       XYZ

 *******************************************************************************
 *******************************************************************************
 **                                                                           **
 **     #####                         ##              ##                      **
 **    ##   ##            ##          ##              ##                      **
 **   ##     ##                       ##            ######                    **
 **   ##     ##  ##   ##  ##   #####  ##  ##   ####   ##    #####    #####    **
 **   ##     ##  ##   ##  ##  ##      ## ##   ##      ##   ##   ##  ##   ##   **
 **   ##  ## ##  ##   ##  ##  ##      ####     ###    ##   ######   ######    **
 **    ##  ###   ##   ##  ##  ##      ## ##      ##   ##   ##       ##        **
 **     #######   #####   ##   #####  ##  ##  ####    ##    #####   ##        **
 **           ##                                                    ##        **
 **                                                                           **
 **                                                ... make the atoms dance   **
 **                                                                           **
 **            Copyright (C) by CP2K developers group (2000-2024)             **
 **                      J. Chem. Phys. 152, 194103 (2020)                    **
 **                                                                           **
 *******************************************************************************

 DFT| Spin unrestricted (spin-polarized) Kohn-Sham calculation               UKS
 DFT| Multiplicity                                                             2
 DFT| Number of spin states                                                    2
 DFT| Charge                                                                   1
 DFT| Self-interaction correction (SIC)                                       NO
 DFT| Cutoffs: density                                              1.000000E-10
 DFT|          gradient                                             1.000000E-10
 DFT|          tau                                                  1.000000E-10
 DFT|          cutoff_smoothing_range                               0.000000E+00
 DFT| XC density smoothing                                                  NONE
 DFT| XC derivatives                                                          PW

 DFT+U| Method                                                          MULLIKEN
 DFT+U| Check atomic kind information for details

 FUNCTIONAL| PBE:
 FUNCTIONAL| J.P.Perdew, K.Burke, M.Ernzerhof, Phys. Rev. Letter, vol. 77, n 18,
 FUNCTIONAL|  pp. 3865-3868, (1996) {spin polarized}                            


 QS| Method:                                                                 GPW
 QS| Density plane wave grid type                        NON-SPHERICAL FULLSPACE
 QS| Number of grid levels:                                                    4
 QS| Density cutoff [a.u.]:                                                300.0
 QS| Multi grid cutoff [a.u.]: 1) grid level                               300.0
 QS|                           2) grid level                               100.0
 QS|                           3) grid level                                33.3
 QS|                           4) grid level                                11.1
 QS| Grid level progression factor:                                          3.0
 QS| Relative density cutoff [a.u.]:                                        20.0
 QS| Interaction thresholds: eps_pgf_orb:                                1.0E-06
 QS|                         eps_filter_matrix:                          0.0E+00
 QS|                         eps_core_charge:                            1.0E-14
 QS|                         eps_rho_gspace:                             1.0E-12
 QS|                         eps_rho_rspace:                             1.0E-12
 QS|                         eps_gvg_rspace:                             1.0E-06
 QS|                         eps_ppl:                                    1.0E-02
 QS|                         eps_ppnl:                                   1.0E-08


 ATOMIC KIND INFORMATION

  1. Atomic kind: Ti                                    Number of atoms:      64

     Orbital Basis Set                                    DZVP-MOLOPT-SR-GTH-q12

       Number of orbital shell sets:                                           1
       Number of orbital shells:                                               8
       Number of primitive Cartesian functions:                                6
       Number of Cartesian basis functions:                                   31
       Number of spherical basis functions:                                   26
       Norm type:                                                              2

       Normalised Cartesian orbitals:

                        Set   Shell   Orbital            Exponent    Coefficient

                          1       1    2s                7.884570       0.015554
                                                         3.894698       0.963603
                                                         1.513589      -0.631435
                                                         0.596768      -0.343022
                                                         0.222222      -0.006534
                                                         0.077078       0.007652

                          1       2    3s                7.884570      -0.009340
                                                         3.894698       0.212624
                                                         1.513589      -0.258368
                                                         0.596768      -0.226206
                                                         0.222222       0.039438
                                                         0.077078       0.107179

                          1       3    4s                7.884570       0.276563
                                                         3.894698       0.105452
                                                         1.513589       0.085149
                                                         0.596768       0.882541
                                                         0.222222      -0.696223
                                                         0.077078       0.156638

                          1       4    3px               7.884570      -2.034794
                                                         3.894698       0.782008
                                                         1.513589       1.253903
                                                         0.596768       0.347823
                                                         0.222222       0.016778
                                                         0.077078      -0.000433
                          1       4    3py               7.884570      -2.034794
                                                         3.894698       0.782008
                                                         1.513589       1.253903
                                                         0.596768       0.347823
                                                         0.222222       0.016778
                                                         0.077078      -0.000433
                          1       4    3pz               7.884570      -2.034794
                                                         3.894698       0.782008
                                                         1.513589       1.253903
                                                         0.596768       0.347823
                                                         0.222222       0.016778
                                                         0.077078      -0.000433

                          1       5    4px               7.884570       0.376572
                                                         3.894698      -0.182875
                                                         1.513589      -0.474776
                                                         0.596768      -0.081757
                                                         0.222222       0.064432
                                                         0.077078       0.047279
                          1       5    4py               7.884570       0.376572
                                                         3.894698      -0.182875
                                                         1.513589      -0.474776
                                                         0.596768      -0.081757
                                                         0.222222       0.064432
                                                         0.077078       0.047279
                          1       5    4pz               7.884570       0.376572
                                                         3.894698      -0.182875
                                                         1.513589      -0.474776
                                                         0.596768      -0.081757
                                                         0.222222       0.064432
                                                         0.077078       0.047279

                          1       6    4dx2              7.884570       3.047350
                                                         3.894698       3.289529
                                                         1.513589       1.060616
                                                         0.596768       0.249930
                                                         0.222222       0.038806
                                                         0.077078       0.002319
                          1       6    4dxy              7.884570       5.278165
                                                         3.894698       5.697631
                                                         1.513589       1.837041
                                                         0.596768       0.432892
                                                         0.222222       0.067214
                                                         0.077078       0.004017
                          1       6    4dxz              7.884570       5.278165
                                                         3.894698       5.697631
                                                         1.513589       1.837041
                                                         0.596768       0.432892
                                                         0.222222       0.067214
                                                         0.077078       0.004017
                          1       6    4dy2              7.884570       3.047350
                                                         3.894698       3.289529
                                                         1.513589       1.060616
                                                         0.596768       0.249930
                                                         0.222222       0.038806
                                                         0.077078       0.002319
                          1       6    4dyz              7.884570       5.278165
                                                         3.894698       5.697631
                                                         1.513589       1.837041
                                                         0.596768       0.432892
                                                         0.222222       0.067214
                                                         0.077078       0.004017
                          1       6    4dz2              7.884570       3.047350
                                                         3.894698       3.289529
                                                         1.513589       1.060616
                                                         0.596768       0.249930
                                                         0.222222       0.038806
                                                         0.077078       0.002319

                          1       7    5dx2              7.884570      -2.119015
                                                         3.894698      -1.237751
                                                         1.513589      -0.746777
                                                         0.596768      -0.071514
                                                         0.222222       0.004086
                                                         0.077078       0.017595
                          1       7    5dxy              7.884570      -3.670241
                                                         3.894698      -2.143848
                                                         1.513589      -1.293455
                                                         0.596768      -0.123865
                                                         0.222222       0.007077
                                                         0.077078       0.030475
                          1       7    5dxz              7.884570      -3.670241
                                                         3.894698      -2.143848
                                                         1.513589      -1.293455
                                                         0.596768      -0.123865
                                                         0.222222       0.007077
                                                         0.077078       0.030475
                          1       7    5dy2              7.884570      -2.119015
                                                         3.894698      -1.237751
                                                         1.513589      -0.746777
                                                         0.596768      -0.071514
                                                         0.222222       0.004086
                                                         0.077078       0.017595
                          1       7    5dyz              7.884570      -3.670241
                                                         3.894698      -2.143848
                                                         1.513589      -1.293455
                                                         0.596768      -0.123865
                                                         0.222222       0.007077
                                                         0.077078       0.030475
                          1       7    5dz2              7.884570      -2.119015
                                                         3.894698      -1.237751
                                                         1.513589      -0.746777
                                                         0.596768      -0.071514
                                                         0.222222       0.004086
                                                         0.077078       0.017595

                          1       8    5fx3              7.884570      -0.342058
                                                         3.894698       0.375798
                                                         1.513589      -0.706469
                                                         0.596768      -0.229994
                                                         0.222222      -0.012723
                                                         0.077078       0.003932
                          1       8    5fx2y             7.884570      -0.764866
                                                         3.894698       0.840310
                                                         1.513589      -1.579712
                                                         0.596768      -0.514282
                                                         0.222222      -0.028450
                                                         0.077078       0.008792
                          1       8    5fx2z             7.884570      -0.764866
                                                         3.894698       0.840310
                                                         1.513589      -1.579712
                                                         0.596768      -0.514282
                                                         0.222222      -0.028450
                                                         0.077078       0.008792
                          1       8    5fxy2             7.884570      -0.764866
                                                         3.894698       0.840310
                                                         1.513589      -1.579712
                                                         0.596768      -0.514282
                                                         0.222222      -0.028450
                                                         0.077078       0.008792
                          1       8    5fxyz             7.884570      -1.324787
                                                         3.894698       1.455460
                                                         1.513589      -2.736142
                                                         0.596768      -0.890763
                                                         0.222222      -0.049276
                                                         0.077078       0.015229
                          1       8    5fxz2             7.884570      -0.764866
                                                         3.894698       0.840310
                                                         1.513589      -1.579712
                                                         0.596768      -0.514282
                                                         0.222222      -0.028450
                                                         0.077078       0.008792
                          1       8    5fy3              7.884570      -0.342058
                                                         3.894698       0.375798
                                                         1.513589      -0.706469
                                                         0.596768      -0.229994
                                                         0.222222      -0.012723
                                                         0.077078       0.003932
                          1       8    5fy2z             7.884570      -0.764866
                                                         3.894698       0.840310
                                                         1.513589      -1.579712
                                                         0.596768      -0.514282
                                                         0.222222      -0.028450
                                                         0.077078       0.008792
                          1       8    5fyz2             7.884570      -0.764866
                                                         3.894698       0.840310
                                                         1.513589      -1.579712
                                                         0.596768      -0.514282
                                                         0.222222      -0.028450
                                                         0.077078       0.008792
                          1       8    5fz3              7.884570      -0.342058
                                                         3.894698       0.375798
                                                         1.513589      -0.706469
                                                         0.596768      -0.229994
                                                         0.222222      -0.012723
                                                         0.077078       0.003932

       Atomic covalent radius [Angstrom]:                                  1.320

       Atomic van der Waals radius [Angstrom]:                             1.760

     GTH Potential information for                                   GTH-PBE-q12

       Description:                       Goedecker-Teter-Hutter pseudopotential
                                           Goedecker et al., PRB 54, 1703 (1996)
                                          Hartwigsen et al., PRB 58, 3641 (1998)
                                                      Krack, TCA 114, 145 (2005)

       Gaussian exponent of the core charge distribution:               3.462604
       Electronic configuration (s p d ...):                           4   6   2

       Parameters of the local part of the GTH pseudopotential:

                          rloc        C1          C2          C3          C4
                        0.380000    8.711442   -0.700287

       Parameters of the non-local part of the GTH pseudopotential:

                   l      r(l)      h(i,j,l)

                   0    0.337771    2.575264    3.692971
                                    3.692971   -4.767605
                   1    0.242531   -4.630541    8.870875
                                    8.870875  -10.496161
                   2    0.243317   -9.406653

  2. Atomic kind: O                                     Number of atoms:     128

     Orbital Basis Set                                     DZVP-MOLOPT-SR-GTH-q6

       Number of orbital shell sets:                                           1
       Number of orbital shells:                                               5
       Number of primitive Cartesian functions:                                5
       Number of Cartesian basis functions:                                   14
       Number of spherical basis functions:                                   13
       Norm type:                                                              2

       Normalised Cartesian orbitals:

                        Set   Shell   Orbital            Exponent    Coefficient

                          1       1    2s               10.389228       0.396646
                                                         3.849621       0.208811
                                                         1.388401      -0.301641
                                                         0.496955      -0.274061
                                                         0.162492      -0.033677

                          1       2    3s               10.389228       0.303673
                                                         3.849621       0.240943
                                                         1.388401      -0.313066
                                                         0.496955      -0.043055
                                                         0.162492       0.213991

                          1       3    3px              10.389228      -1.530415
                                                         3.849621      -1.371928
                                                         1.388401      -0.761951
                                                         0.496955      -0.253695
                                                         0.162492      -0.035541
                          1       3    3py              10.389228      -1.530415
                                                         3.849621      -1.371928
                                                         1.388401      -0.761951
                                                         0.496955      -0.253695
                                                         0.162492      -0.035541
                          1       3    3pz              10.389228      -1.530415
                                                         3.849621      -1.371928
                                                         1.388401      -0.761951
                                                         0.496955      -0.253695
                                                         0.162492      -0.035541

                          1       4    4px              10.389228      -0.565392
                                                         3.849621      -0.038231
                                                         1.388401      -0.382373
                                                         0.496955       0.179070
                                                         0.162492       0.122714
                          1       4    4py              10.389228      -0.565392
                                                         3.849621      -0.038231
                                                         1.388401      -0.382373
                                                         0.496955       0.179070
                                                         0.162492       0.122714
                          1       4    4pz              10.389228      -0.565392
                                                         3.849621      -0.038231
                                                         1.388401      -0.382373
                                                         0.496955       0.179070
                                                         0.162492       0.122714

                          1       5    4dx2             10.389228       1.867377
                                                         3.849621       0.670994
                                                         1.388401       1.353441
                                                         0.496955       0.273538
                                                         0.162492       0.006620
                          1       5    4dxy             10.389228       3.234392
                                                         3.849621       1.162195
                                                         1.388401       2.344229
                                                         0.496955       0.473781
                                                         0.162492       0.011466
                          1       5    4dxz             10.389228       3.234392
                                                         3.849621       1.162195
                                                         1.388401       2.344229
                                                         0.496955       0.473781
                                                         0.162492       0.011466
                          1       5    4dy2             10.389228       1.867377
                                                         3.849621       0.670994
                                                         1.388401       1.353441
                                                         0.496955       0.273538
                                                         0.162492       0.006620
                          1       5    4dyz             10.389228       3.234392
                                                         3.849621       1.162195
                                                         1.388401       2.344229
                                                         0.496955       0.473781
                                                         0.162492       0.011466
                          1       5    4dz2             10.389228       1.867377
                                                         3.849621       0.670994
                                                         1.388401       1.353441
                                                         0.496955       0.273538
                                                         0.162492       0.006620

       Atomic covalent radius [Angstrom]:                                  0.730

       Atomic van der Waals radius [Angstrom]:                             1.520

     GTH Potential information for                                    GTH-PBE-q6

       Description:                       Goedecker-Teter-Hutter pseudopotential
                                           Goedecker et al., PRB 54, 1703 (1996)
                                          Hartwigsen et al., PRB 58, 3641 (1998)
                                                      Krack, TCA 114, 145 (2005)

       Gaussian exponent of the core charge distribution:               8.360253
       Electronic configuration (s p d ...):                               2   4

       Parameters of the local part of the GTH pseudopotential:

                          rloc        C1          C2          C3          C4
                        0.244554  -16.667215    2.487311

       Parameters of the non-local part of the GTH pseudopotential:

                   l      r(l)      h(i,j,l)

                   0    0.220956   18.337458
                   1    0.211332

     A DFT+U correction is applied to atoms of this atomic kind:
       Angular quantum momentum number L:                                      1
       U(eff) = (U - J) value in [eV]:                                     5.000


 MOLECULE KIND INFORMATION


 All atoms are their own molecule, skipping detailed information


 TOTAL NUMBERS AND MAXIMUM NUMBERS

  Total number of            - Atomic kinds:                                   2
                             - Atoms:                                        192
                             - Shell sets:                                   192
                             - Shells:                                      1152
                             - Primitive Cartesian functions:               1024
                             - Cartesian basis functions:                   3776
                             - Spherical basis functions:                   3328

  Maximum angular momentum of- Orbital basis functions:                        3
                             - Local part of the GTH pseudopotential:          2
                             - Non-local part of the GTH pseudopotential:      3


 MODULE QUICKSTEP: ATOMIC COORDINATES IN ANGSTROM

   Atom Kind Element         X             Y             Z       Z(eff)     Mass
      1    1 Ti   22      0.000938      0.000938     -0.000000  12.0000  47.8670
      2    1 Ti   22      1.888289      1.888292      4.807510  12.0000  47.8670
      3    1 Ti   22      0.000913      1.888309      2.401915  12.0000  47.8670
      4    1 Ti   22      1.888313      0.000907      7.213102  12.0000  47.8670
      5    1 Ti   22      0.000909      3.776194      0.002773  12.0000  47.8670
      6    1 Ti   22      1.888320     13.237685      4.805638  12.0000  47.8670
      7    1 Ti   22     11.350372      1.888292      2.403687  12.0000  47.8670
      8    1 Ti   22      5.668782      0.000882      7.217308  12.0000  47.8670
      9    1 Ti   22      1.888277      3.776161      7.210286  12.0000  47.8670
     10    1 Ti   22      0.000935     13.237665      2.403794  12.0000  47.8670
     11    1 Ti   22      5.668787      1.888293      4.803302  12.0000  47.8670
     12    1 Ti   22     11.350350      0.000918     -0.001774  12.0000  47.8670
     13    1 Ti   22      3.776192      0.000920     -0.002771  12.0000  47.8670
     14    1 Ti   22     13.237686      1.888311      4.809383  12.0000  47.8670
     15    1 Ti   22     13.237669      0.000926      7.211231  12.0000  47.8670
     16    1 Ti   22      3.776168      1.888284      2.404735  12.0000  47.8670
     17    1 Ti   22      1.888291      5.668789      4.811718  12.0000  47.8670
     18    1 Ti   22      0.000915     11.350356      0.001774  12.0000  47.8670
     19    1 Ti   22      0.000886      5.668781      2.397710  12.0000  47.8670
     20    1 Ti   22      1.888294     11.350365      7.211332  12.0000  47.8670
     21    1 Ti   22      0.000889      7.570104      0.006007  12.0000  47.8670
     22    1 Ti   22      1.888288      9.462611      4.808392  12.0000  47.8670
     23    1 Ti   22      7.570099      1.888294      2.407927  12.0000  47.8670
     24    1 Ti   22      9.462586      0.000903      7.213946  12.0000  47.8670
     25    1 Ti   22      1.888289      7.570091      7.207097  12.0000  47.8670
     26    1 Ti   22      0.000910      9.462585      2.401076  12.0000  47.8670
     27    1 Ti   22      9.462613      1.888287      4.806628  12.0000  47.8670
     28    1 Ti   22      7.570098      0.000897     -0.006006  12.0000  47.8670
     29    1 Ti   22      3.776159      3.776168      0.000000  12.0000  47.8670
     30    1 Ti   22     13.237674     13.237669      4.807512  12.0000  47.8670
     31    1 Ti   22     11.350369      5.668788      2.399484  12.0000  47.8670
     32    1 Ti   22      5.668791     11.350359      7.215535  12.0000  47.8670
     33    1 Ti   22     13.237681      3.776185      7.208461  12.0000  47.8670
     34    1 Ti   22      3.776193     13.237686      2.406561  12.0000  47.8670
     35    1 Ti   22      5.668697      5.668702      4.807508  12.0000  47.8670
     36    1 Ti   22     11.350374     11.350376      0.000000  12.0000  47.8670
     37    1 Ti   22     11.350350     13.237684      2.405565  12.0000  47.8670
     38    1 Ti   22      5.668748      3.776168      7.214544  12.0000  47.8670
     39    1 Ti   22      3.776172     11.350389     -0.001046  12.0000  47.8670
     40    1 Ti   22     13.237710      5.668779      4.813588  12.0000  47.8670
     41    1 Ti   22      5.668788     13.237710      4.801435  12.0000  47.8670
     42    1 Ti   22     11.350374      3.776174      0.001045  12.0000  47.8670
     43    1 Ti   22     13.237688     11.350339      7.209455  12.0000  47.8670
     44    1 Ti   22      3.776169      5.668752      2.400474  12.0000  47.8670
     45    1 Ti   22      3.776174      7.570135      0.003239  12.0000  47.8670
     46    1 Ti   22     13.237690      9.462583      4.810221  12.0000  47.8670
     47    1 Ti   22      7.570174      5.668702      2.403718  12.0000  47.8670
     48    1 Ti   22      9.462611     11.350370      7.212215  12.0000  47.8670
     49    1 Ti   22     13.237708      7.570091      7.205227  12.0000  47.8670
     50    1 Ti   22      3.776159      9.462614      2.403848  12.0000  47.8670
     51    1 Ti   22      9.462599      5.668760      4.810890  12.0000  47.8670
     52    1 Ti   22      7.570099     11.350380     -0.004232  12.0000  47.8670
     53    1 Ti   22     11.350376      9.462606      2.402804  12.0000  47.8670
     54    1 Ti   22      5.668696      7.570167      7.211304  12.0000  47.8670
     55    1 Ti   22      5.668759      9.462600      4.804130  12.0000  47.8670
     56    1 Ti   22     11.350368      7.570099      0.004230  12.0000  47.8670
     57    1 Ti   22      9.462608      3.776154      7.211171  12.0000  47.8670
     58    1 Ti   22      7.570100     13.237712      2.409795  12.0000  47.8670
     59    1 Ti   22      7.570122      3.776179     -0.003237  12.0000  47.8670
     60    1 Ti   22      9.462590     13.237692      4.804800  12.0000  47.8670
     61    1 Ti   22      7.570170      7.570178      0.000001  12.0000  47.8670
     62    1 Ti   22      9.462618      9.462619      4.807509  12.0000  47.8670
     63    1 Ti   22      7.570124      9.462601      2.407086  12.0000  47.8670
     64    1 Ti   22      9.462594      7.570121      7.207932  12.0000  47.8670
     65    2 O     8      0.000605      0.001599      1.986978   6.0000  15.9994
     66    2 O     8      1.884765      1.887478      6.794668   6.0000  15.9994
     67    2 O     8      0.001581      1.884746      4.390813   6.0000  15.9994
     68    2 O     8      1.887503      0.000608      9.198331   6.0000  15.9994
     69    2 O     8      1.884747      0.001580      5.224209   6.0000  15.9994
     70    2 O     8      0.000609      1.887502      0.416689   6.0000  15.9994
     71    2 O     8      1.887478      1.884765      2.820354   6.0000  15.9994
     72    2 O     8      0.001600      0.000605      7.628041   6.0000  15.9994
     73    2 O     8      0.000636      3.775921      1.983916   6.0000  15.9994
     74    2 O     8      1.884747     13.236967      6.794570   6.0000  15.9994
     75    2 O     8     11.351137      1.884761      4.390963   6.0000  15.9994
     76    2 O     8      5.672303      0.000595      9.199694   6.0000  15.9994
     77    2 O     8      1.884829      3.775874      5.227192   6.0000  15.9994
     78    2 O     8      0.000605     13.236951      0.416779   6.0000  15.9994
     79    2 O     8      5.672266      1.884794      2.819101   6.0000  15.9994
     80    2 O     8     11.351115      0.000607      7.627898   6.0000  15.9994
     81    2 O     8      3.775922      0.000637      7.631101   6.0000  15.9994
     82    2 O     8     13.236968      1.884746      2.820451   6.0000  15.9994
     83    2 O     8     13.236953      0.000604      9.198239   6.0000  15.9994
     84    2 O     8      3.775876      1.884830      4.387828   6.0000  15.9994
     85    2 O     8      1.884793      5.672266      6.795920   6.0000  15.9994
     86    2 O     8      0.000607     11.351115      1.987124   6.0000  15.9994
     87    2 O     8      0.000595      5.672302      0.415325   6.0000  15.9994
     88    2 O     8      1.884761     11.351136      5.224057   6.0000  15.9994
     89    2 O     8      0.000594      7.566663      1.988500   6.0000  15.9994
     90    2 O     8      1.884828      9.462834      6.791684   6.0000  15.9994
     91    2 O     8      7.566707      1.884793      4.392240   6.0000  15.9994
     92    2 O     8      9.462790      0.000635      9.195285   6.0000  15.9994
     93    2 O     8      1.884792      7.566704      5.222780   6.0000  15.9994
     94    2 O     8      0.000635      9.462789      0.419736   6.0000  15.9994
     95    2 O     8      9.462834      1.884828      2.823335   6.0000  15.9994
     96    2 O     8      7.566665      0.000595      7.626520   6.0000  15.9994
     97    2 O     8      3.769464      0.001571      1.987645   6.0000  15.9994
     98    2 O     8     13.237869      1.887503      6.794556   6.0000  15.9994
     99    2 O     8      0.001570      5.655464      4.390945   6.0000  15.9994
    100    2 O     8      1.887480     11.353777      9.198428   6.0000  15.9994
    101    2 O     8     13.237872      0.001599      5.224301   6.0000  15.9994
    102    2 O     8      3.769522      1.887483      0.416067   6.0000  15.9994
    103    2 O     8      1.887498      5.655586      2.820264   6.0000  15.9994
    104    2 O     8      0.001581     11.353795      7.627961   6.0000  15.9994
    105    2 O     8     11.353778      1.887479      0.416591   6.0000  15.9994
    106    2 O     8      5.655467      0.001571      5.224074   6.0000  15.9994
    107    2 O     8      5.655585      1.887499      6.794755   6.0000  15.9994
    108    2 O     8     11.353796      0.001582      1.987060   6.0000  15.9994
    109    2 O     8      1.887483      3.769522      9.198954   6.0000  15.9994
    110    2 O     8      0.001600     13.237871      4.390717   6.0000  15.9994
    111    2 O     8      0.001571      3.769463      7.627373   6.0000  15.9994
    112    2 O     8      1.887503     13.237869      2.820463   6.0000  15.9994
    113    2 O     8      3.769609      3.775869      1.984656   6.0000  15.9994
    114    2 O     8     13.237873     13.236952      6.794470   6.0000  15.9994
    115    2 O     8     11.351113      5.655577      4.391053   6.0000  15.9994
    116    2 O     8      5.672267     11.353751      9.199678   6.0000  15.9994
    117    2 O     8     13.237843      3.775922      5.227361   6.0000  15.9994
    118    2 O     8      3.769466     13.236975      0.416106   6.0000  15.9994
    119    2 O     8      5.672282      5.655695      2.818799   6.0000  15.9994
    120    2 O     8     11.351136     11.353782      7.627807   6.0000  15.9994
    121    2 O     8     11.353796     13.236966      0.416694   6.0000  15.9994
    122    2 O     8      5.655680      3.775889      5.227038   6.0000  15.9994
    123    2 O     8      3.775876     11.353714      7.630941   6.0000  15.9994
    124    2 O     8     13.236975      5.655467      2.820315   6.0000  15.9994
    125    2 O     8      5.655469     13.236976      6.794701   6.0000  15.9994
    126    2 O     8     11.353713      3.775876      1.984077   6.0000  15.9994
    127    2 O     8     13.236967     11.353795      9.198328   6.0000  15.9994
    128    2 O     8      3.775885      5.655680      4.387984   6.0000  15.9994
    129    2 O     8      5.655693      5.672288      6.796226   6.0000  15.9994
    130    2 O     8     11.353781     11.351135      1.987215   6.0000  15.9994
    131    2 O     8     13.236975      3.769464      9.198912   6.0000  15.9994
    132    2 O     8      3.775922     13.237844      4.387657   6.0000  15.9994
    133    2 O     8     11.353750      5.672265      0.415342   6.0000  15.9994
    134    2 O     8      5.655578     11.351113      5.223966   6.0000  15.9994
    135    2 O     8      3.775870      3.769611      7.630365   6.0000  15.9994
    136    2 O     8     13.236952     13.237872      2.820550   6.0000  15.9994
    137    2 O     8     13.237871     11.351114      5.224162   6.0000  15.9994
    138    2 O     8      3.769595      5.672254      0.414759   6.0000  15.9994
    139    2 O     8      5.672306     13.237885      2.819096   6.0000  15.9994
    140    2 O     8     11.351128      3.769514      7.627281   6.0000  15.9994
    141    2 O     8      3.769514     11.351131      1.987739   6.0000  15.9994
    142    2 O     8     13.237884      5.672301      6.795925   6.0000  15.9994
    143    2 O     8     11.351115     13.237871      4.390860   6.0000  15.9994
    144    2 O     8      5.672254      3.769597      9.200264   6.0000  15.9994
    145    2 O     8      3.769596      7.566712      1.989070   6.0000  15.9994
    146    2 O     8     13.237846      9.462790      6.791513   6.0000  15.9994
    147    2 O     8      7.566674      5.655694      4.392548   6.0000  15.9994
    148    2 O     8      9.462832     11.353715      9.195446   6.0000  15.9994
    149    2 O     8     13.237885      7.566662      5.222781   6.0000  15.9994
    150    2 O     8      3.769612      9.462834      0.419000   6.0000  15.9994
    151    2 O     8      9.462811      5.655681      2.823193   6.0000  15.9994
    152    2 O     8      7.566704     11.353751      7.626532   6.0000  15.9994
    153    2 O     8     11.353715      9.462831      0.419576   6.0000  15.9994
    154    2 O     8      5.655695      7.566675      5.222474   6.0000  15.9994
    155    2 O     8      5.655679      9.462814      6.791827   6.0000  15.9994
    156    2 O     8     11.353750      7.566702      1.988488   6.0000  15.9994
    157    2 O     8      9.462833      3.769613      9.196020   6.0000  15.9994
    158    2 O     8      7.566664     13.237886      4.392242   6.0000  15.9994
    159    2 O     8      7.566710      3.769598      7.625951   6.0000  15.9994
    160    2 O     8      9.462789     13.237845      2.823510   6.0000  15.9994
    161    2 O     8      7.583160      0.001570      1.987207   6.0000  15.9994
    162    2 O     8      9.469053      1.887484      6.795178   6.0000  15.9994
    163    2 O     8      0.001571      9.469108      4.391379   6.0000  15.9994
    164    2 O     8      1.887495      7.583052      9.198524   6.0000  15.9994
    165    2 O     8      9.469109      0.001571      5.223641   6.0000  15.9994
    166    2 O     8      7.583048      1.887496      0.416494   6.0000  15.9994
    167    2 O     8      1.887481      9.469052      2.819842   6.0000  15.9994
    168    2 O     8      0.001569      7.583156      7.627811   6.0000  15.9994
    169    2 O     8      7.582949      3.775884      1.984243   6.0000  15.9994
    170    2 O     8      9.469107     13.236976      6.795137   6.0000  15.9994
    171    2 O     8     11.351128      9.469061      4.391474   6.0000  15.9994
    172    2 O     8      5.672280      7.582936      9.199976   6.0000  15.9994
    173    2 O     8      9.468966      3.775871      5.226637   6.0000  15.9994
    174    2 O     8      7.583162     13.236977      0.416545   6.0000  15.9994
    175    2 O     8      5.672253      9.468983      2.818529   6.0000  15.9994
    176    2 O     8     11.351117      7.583054      7.627707   6.0000  15.9994
    177    2 O     8      3.775885      7.582947      7.630778   6.0000  15.9994
    178    2 O     8     13.236973      9.469105      2.819884   6.0000  15.9994
    179    2 O     8     13.236977      7.583163      9.198473   6.0000  15.9994
    180    2 O     8      3.775868      9.468967      4.388382   6.0000  15.9994
    181    2 O     8      9.468982      5.672259      6.796488   6.0000  15.9994
    182    2 O     8      7.583057     11.351118      1.987312   6.0000  15.9994
    183    2 O     8      7.582933      5.672281      0.415048   6.0000  15.9994
    184    2 O     8      9.469060     11.351130      5.223549   6.0000  15.9994
    185    2 O     8      7.582935      7.566679      1.988789   6.0000  15.9994
    186    2 O     8      9.468966      9.462837      6.792240   6.0000  15.9994
    187    2 O     8      7.566706      9.468985      4.392805   6.0000  15.9994
    188    2 O     8      9.462817      7.582949      9.195598   6.0000  15.9994
    189    2 O     8      9.468983      7.566714      5.222214   6.0000  15.9994
    190    2 O     8      7.582948      9.462814      0.419423   6.0000  15.9994
    191    2 O     8      9.462834      9.468967      2.822781   6.0000  15.9994
    192    2 O     8      7.566679      7.582936      7.626235   6.0000  15.9994



 SCF PARAMETERS         Density guess:                                   RESTART
                        --------------------------------------------------------
                        max_scf:                                              40
                        max_scf_history:                                       0
                        max_diis:                                              4
                        --------------------------------------------------------
                        eps_scf:                                        1.00E-06
                        eps_scf_history:                                0.00E+00
                        eps_diis:                                       1.00E-01
                        eps_eigval:                                     1.00E-05
                        --------------------------------------------------------
                        level_shift [a.u.]:                             0.000000
                        --------------------------------------------------------
                        Outer loop SCF in use 
                        No variables optimised in outer loop
                        eps_scf                                         1.00E-06
                        max_scf                                               60
                        No outer loop optimization
                        step_size                                       5.00E-01

 PW_GRID| Information for grid number                                          1
 PW_GRID| Grid distributed over                                   128 processors
 PW_GRID| Real space group dimensions                                   128    1
 PW_GRID| the grid is blocked:                                                NO
 PW_GRID| Cutoff [a.u.]                                                    300.0
 PW_GRID| spherical cutoff:                                                   NO
 PW_GRID|   Bounds   1           -112     112                Points:         225
 PW_GRID|   Bounds   2           -112     112                Points:         225
 PW_GRID|   Bounds   3            -72      71                Points:         144
 PW_GRID| Volume element (a.u.^3)  0.2035E-02     Volume (a.u.^3)     14833.7304
 PW_GRID| Grid span                                                    FULLSPACE
 PW_GRID|   Distribution                         Average         Max         Min
 PW_GRID|   G-Vectors                            56953.1       57150       56925
 PW_GRID|   G-Rays                                 253.1         254         253
 PW_GRID|   Real Space Points                    56953.1       64800       32400

 PW_GRID| Information for grid number                                          2
 PW_GRID| Number of the reference grid                                         1
 PW_GRID| Grid distributed over                                   128 processors
 PW_GRID| Real space group dimensions                                   128    1
 PW_GRID| the grid is blocked:                                                NO
 PW_GRID| Cutoff [a.u.]                                                    100.0
 PW_GRID| spherical cutoff:                                                   NO
 PW_GRID|   Bounds   1            -67      67                Points:         135
 PW_GRID|   Bounds   2            -67      67                Points:         135
 PW_GRID|   Bounds   3            -40      40                Points:          81
 PW_GRID| Volume element (a.u.^3)  0.1005E-01     Volume (a.u.^3)     14833.7304
 PW_GRID| Grid span                                                    FULLSPACE
 PW_GRID|   Distribution                         Average         Max         Min
 PW_GRID|   G-Vectors                            11533.0       12150       10800
 PW_GRID|   G-Rays                                  85.4          90          80
 PW_GRID|   Real Space Points                    11533.0       21870       10935

 PW_GRID| Information for grid number                                          3
 PW_GRID| Number of the reference grid                                         1
 PW_GRID| Grid distributed over                                   128 processors
 PW_GRID| Real space group dimensions                                     8   16
 PW_GRID| the grid is blocked:                                                NO
 PW_GRID| Cutoff [a.u.]                                                     33.3
 PW_GRID| spherical cutoff:                                                   NO
 PW_GRID|   Bounds   1            -37      37                Points:          75
 PW_GRID|   Bounds   2            -37      37                Points:          75
 PW_GRID|   Bounds   3            -24      23                Points:          48
 PW_GRID| Volume element (a.u.^3)  0.5494E-01     Volume (a.u.^3)     14833.7304
 PW_GRID| Grid span                                                    FULLSPACE
 PW_GRID|   Distribution                         Average         Max         Min
 PW_GRID|   G-Vectors                             2109.4        2475        1725
 PW_GRID|   G-Rays                                  28.1          33          23
 PW_GRID|   Real Space Points                     2109.4        2400        1728

 PW_GRID| Information for grid number                                          4
 PW_GRID| Number of the reference grid                                         1
 PW_GRID| Grid distributed over                                   128 processors
 PW_GRID| Real space group dimensions                                     8   16
 PW_GRID| the grid is blocked:                                                NO
 PW_GRID| Cutoff [a.u.]                                                     11.1
 PW_GRID| spherical cutoff:                                                   NO
 PW_GRID|   Bounds   1            -22      22                Points:          45
 PW_GRID|   Bounds   2            -22      22                Points:          45
 PW_GRID|   Bounds   3            -13      13                Points:          27
 PW_GRID| Volume element (a.u.^3)  0.2713         Volume (a.u.^3)     14833.7304
 PW_GRID| Grid span                                                    FULLSPACE
 PW_GRID|   Distribution                         Average         Max         Min
 PW_GRID|   G-Vectors                              427.1         585         270
 PW_GRID|   G-Rays                                   9.5          13           6
 PW_GRID|   Real Space Points                      427.1         486         270

 POISSON| Solver                                                        PERIODIC
 POISSON| Periodicity                                                        XYZ

 RS_GRID| Information for grid number                                          1
 RS_GRID|   Bounds   1           -112     112                Points:         225
 RS_GRID|   Bounds   2           -112     112                Points:         225
 RS_GRID|   Bounds   3            -72      71                Points:         144
 RS_GRID| Real space distribution over                                  8 groups
 RS_GRID| Real space distribution along direction                              1
 RS_GRID| Border size                                                         26
 RS_GRID| Real space distribution over                                 16 groups
 RS_GRID| Real space distribution along direction                              2
 RS_GRID| Border size                                                         26
 RS_GRID|   Distribution                         Average         Max         Min
 RS_GRID|   Planes                                  80.1          81          80
 RS_GRID|   Distribution                         Average         Max         Min
 RS_GRID|   Planes                                  66.1          67          66

 RS_GRID| Information for grid number                                          2
 RS_GRID|   Bounds   1            -67      67                Points:         135
 RS_GRID|   Bounds   2            -67      67                Points:         135
 RS_GRID|   Bounds   3            -40      40                Points:          81
 RS_GRID| Real space distribution over                                  8 groups
 RS_GRID| Real space distribution along direction                              1
 RS_GRID| Border size                                                         24
 RS_GRID| Real space distribution over                                 16 groups
 RS_GRID| Real space distribution along direction                              2
 RS_GRID| Border size                                                         24
 RS_GRID|   Distribution                         Average         Max         Min
 RS_GRID|   Planes                                  64.9          65          64
 RS_GRID|   Distribution                         Average         Max         Min
 RS_GRID|   Planes                                  56.4          57          56

 RS_GRID| Information for grid number                                          3
 RS_GRID|   Bounds   1            -37      37                Points:          75
 RS_GRID|   Bounds   2            -37      37                Points:          75
 RS_GRID|   Bounds   3            -24      23                Points:          48
 RS_GRID| Real space fully replicated
 RS_GRID| Group size                                                           1

 RS_GRID| Information for grid number                                          4
 RS_GRID|   Bounds   1            -22      22                Points:          45
 RS_GRID|   Bounds   2            -22      22                Points:          45
 RS_GRID|   Bounds   3            -13      13                Points:          27
 RS_GRID| Real space fully replicated
 RS_GRID| Group size                                                           1

 BFGS| Use rational function optimization for step estimation:                NO
 BFGS| Use model Hessian for initial guess:                                  YES
 BFGS| Restart Hessian:                                                       NO
 BFGS| Trust radius:                                                       0.472

 *******************************************************************************
 ***                     STARTING GEOMETRY OPTIMIZATION                      ***
 ***                                   BFGS                                  ***
 *******************************************************************************

 Spin 1

 Number of electrons:                                                        768
 Number of occupied orbitals:                                                768
 Number of molecular orbitals:                                               768

 Spin 2

 Number of electrons:                                                        767
 Number of occupied orbitals:                                                767
 Number of molecular orbitals:                                               767

 Number of orbital functions:                                               3328
 Number of independent orbital functions:                                   3328

 Extrapolation method: initial_guess

 *** WARNING in qs_initial_guess.F:306 :: User requested to restart the    ***
 *** wavefunction from the file named: tio2-RESTART.wfn. This file does    ***
 *** not exist. Please check the existence of the file or change properly  ***
 *** the value of the keyword WFN_RESTART_FILE_NAME. Calculation continues ***
 *** using ATOMIC GUESS.                                                   ***


 Atomic guess: The first density matrix is obtained in terms of atomic orbitals
               and electronic configurations assigned to each atomic kind

 Guess for atomic kind: Ti

 Electronic structure
    Total number of core electrons                                         10.00
    Total number of valence electrons                                      12.00
    Total number of electrons                                              22.00
    Multiplicity                                                   not specified
    S   [  2.00  2.00] 2.00  2.00
    P   [  6.00] 6.00
    D      2.00


 *******************************************************************************
                  Iteration          Convergence                     Energy [au]
 *******************************************************************************
                          1         2.59099                     -56.573945749309
                          2        0.737518                     -57.461623245624
                          3        0.123244E-01                 -57.676656834797
                          4        0.338536E-02                 -57.676690535970
                          5        0.252157E-03                 -57.676697146183
                          6        0.162704E-05                 -57.676697160103
                          7        0.846593E-06                 -57.676697160104

 Energy components [Hartree]           Total Energy ::          -57.676697160104
                                        Band Energy ::          -13.440549799540
                                     Kinetic Energy ::           25.008468428381
                                   Potential Energy ::          -82.685165588485
                                      Virial (-V/T) ::            3.306286661467
                                        Core Energy ::          -97.155838374470
                                          XC Energy ::           -6.919409696495
                                     Coulomb Energy ::           46.398550910862
                       Total Pseudopotential Energy ::         -122.259340742080
                       Local Pseudopotential Energy ::         -118.928992669456
                    Nonlocal Pseudopotential Energy ::           -3.330348072625
                                        Confinement ::            0.950339392289

 Orbital energies  State     L     Occupation   Energy[a.u.]          Energy[eV]

                       1     0          2.000      -2.312566          -62.928123
                       2     0          2.000      -0.123060           -3.348633

                       1     1          6.000      -1.385567          -37.703193

                       1     2          2.000      -0.127948           -3.481643


 Total Electron Density at R=0:                                         0.004726

 Guess for atomic kind: O

 Electronic structure
    Total number of core electrons                                          2.00
    Total number of valence electrons                                       6.00
    Total number of electrons                                               8.00
    Multiplicity                                                   not specified
    S   [  2.00] 2.00
    P      4.00


 *******************************************************************************
                  Iteration          Convergence                     Energy [au]
 *******************************************************************************
                          1        0.702811                     -15.577904332270
                          2        0.612408                     -15.588447180504
                          3        0.955344E-02                 -15.655871208406
                          4        0.223754E-02                 -15.655885053552
                          5        0.157183E-02                 -15.655885461027
                          6        0.124953E-02                 -15.655885607150
                          7        0.312011E-06                 -15.655885858066

 Energy components [Hartree]           Total Energy ::          -15.655885858066
                                        Band Energy ::           -2.983128125584
                                     Kinetic Energy ::           11.754765134683
                                   Potential Energy ::          -27.410650992749
                                      Virial (-V/T) ::            2.331875684345
                                        Core Energy ::          -26.153522949072
                                          XC Energy ::           -3.157392363346
                                     Coulomb Energy ::           13.655029454351
                       Total Pseudopotential Energy ::          -37.943026860963
                       Local Pseudopotential Energy ::          -39.220419683052
                    Nonlocal Pseudopotential Energy ::            1.277392822089
                                        Confinement ::            0.347387772086

 Orbital energies  State     L     Occupation   Energy[a.u.]          Energy[eV]

                       1     0          2.000      -0.861522          -23.443215

                       1     1          4.000      -0.315021           -8.572154


 Total Electron Density at R=0:                                         0.000093

 Spin 1
 Re-scaling the density matrix to get the right number of electrons for spin 1
                  # Electrons              Trace(P)               Scaling factor
                          768               768.001                        1.000

 Spin 2
 Re-scaling the density matrix to get the right number of electrons for spin 2
                  # Electrons              Trace(P)               Scaling factor
                          767               768.001                        0.999


 SCF WAVEFUNCTION OPTIMIZATION

  ----------------------------------- OT ---------------------------------------
  Minimizer      : DIIS                : direct inversion
                                         in the iterative subspace
                                         using   7 DIIS vectors
                                         safer DIIS on
  Preconditioner : FULL_SINGLE_INVERSE : inversion of 
                                         H + eS - 2*(Sc)(c^T*H*c+const)(Sc)^T
  Precond_solver : DEFAULT
  stepsize       :    0.08000000                  energy_gap     :    0.08000000
  eps_taylor     :   0.10000E-15                  max_taylor     :             4
  ----------------------------------- OT ---------------------------------------

  Step     Update method      Time    Convergence         Total energy    Change
  ------------------------------------------------------------------------------
     1 OT DIIS     0.80E-01    2.0     0.01000298     -5652.9743718562 -5.65E+03
     2 OT DIIS     0.80E-01    1.5     0.00723374     -5687.6478077089 -3.47E+01
     3 OT DIIS     0.80E-01    1.5     0.00459919     -5720.1845225581 -3.25E+01
     4 OT DIIS     0.80E-01    1.5     0.00365233     -5730.4357535177 -1.03E+01
     5 OT DIIS     0.80E-01    1.5     0.00266862     -5741.7315475201 -1.13E+01
     6 OT DIIS     0.80E-01    1.5     0.00219834     -5748.5937942785 -6.86E+00
     7 OT DIIS     0.80E-01    1.5     0.00184886     -5754.6229480280 -6.03E+00
     8 OT DIIS     0.80E-01    1.5     0.00147954     -5760.5205712206 -5.90E+00
     9 OT DIIS     0.80E-01    1.5     0.00127614     -5764.1383869709 -3.62E+00
    10 OT DIIS     0.80E-01    1.5     0.00099599     -5767.3787398848 -3.24E+00
    11 OT DIIS     0.80E-01    1.5     0.00090907     -5768.1915249906 -8.13E-01
    12 OT DIIS     0.80E-01    1.5     0.00073790     -5769.9677970093 -1.78E+00
    13 OT DIIS     0.80E-01    1.5     0.00060216     -5771.3345831958 -1.37E+00
    14 OT DIIS     0.80E-01    1.5     0.00049861     -5772.2554615839 -9.21E-01
    15 OT DIIS     0.80E-01    1.5     0.00044660     -5772.7362816788 -4.81E-01
    16 OT DIIS     0.80E-01    1.5     0.00037701     -5773.2537236084 -5.17E-01
    17 OT DIIS     0.80E-01    1.5     0.00034612     -5773.4931944233 -2.39E-01
    18 OT DIIS     0.80E-01    1.5     0.00030186     -5773.8042127302 -3.11E-01
    19 OT DIIS     0.80E-01    1.5     0.00026628     -5774.0094741343 -2.05E-01
    20 OT DIIS     0.80E-01    1.5     0.00025312     -5774.1116673956 -1.02E-01
    21 OT DIIS     0.80E-01    1.5     0.00022823     -5774.3101275767 -1.98E-01
    22 OT DIIS     0.80E-01    1.5     0.00020685     -5774.4442778941 -1.34E-01
    23 OT DIIS     0.80E-01    1.5     0.00019182     -5774.5661360449 -1.22E-01
    24 OT DIIS     0.80E-01    1.5     0.00017175     -5774.6508109534 -8.47E-02
    25 OT DIIS     0.80E-01    1.5     0.00016417     -5774.7119390445 -6.11E-02
    26 OT DIIS     0.80E-01    1.5     0.00014707     -5774.7817932562 -6.99E-02
    27 OT DIIS     0.80E-01    1.5     0.00014239     -5774.8318071856 -5.00E-02
    28 OT DIIS     0.80E-01    1.5     0.00013698     -5774.8519662581 -2.02E-02
    29 OT DIIS     0.80E-01    1.5     0.00013440     -5774.9001697056 -4.82E-02
    30 OT DIIS     0.80E-01    1.5     0.00013301     -5774.9040863090 -3.92E-03
    31 OT DIIS     0.80E-01    1.5     0.00012221     -5774.9256442079 -2.16E-02
    32 OT DIIS     0.80E-01    1.5     0.00012404     -5774.9465591383 -2.09E-02
    33 OT DIIS     0.80E-01    1.5     0.00011264     -5774.9753841482 -2.88E-02
    34 OT DIIS     0.80E-01    1.5     0.00010600     -5775.0016997345 -2.63E-02
    35 OT DIIS     0.80E-01    1.5     0.00009327     -5775.0589518598 -5.73E-02
    36 OT DIIS     0.80E-01    1.5     0.00009094     -5775.0684416770 -9.49E-03
    37 OT DIIS     0.80E-01    1.5     0.00009016     -5775.1060671754 -3.76E-02
    38 OT DIIS     0.80E-01    1.5     0.00008371     -5775.1137829320 -7.72E-03
    39 OT DIIS     0.80E-01    1.5     0.00008186     -5775.1225609181 -8.78E-03
    40 OT DIIS     0.80E-01    1.5     0.00008359     -5775.1406434499 -1.81E-02

  Leaving inner SCF loop after reaching    40 steps.


  Electronic density on regular grids:      -1534.9999999999        0.0000000001
  Core density on regular grids:             1535.9999999995       -0.0000000005
  Total charge density on r-space grids:        0.9999999996
  Total charge density g-space grids:           0.9999999996

  Overlap energy of the core charge distribution:               0.00000000000319
  Self energy of the core charge distribution:             -12156.89556134359555
  Core Hamiltonian energy:                                   3283.17225517590668
  Hartree energy:                                            4011.37506055201538
  Exchange-correlation energy:                               -926.06639877484088

  DFT+U energy:                                                13.27400094062969

  Total energy:                                             -5775.14064344988128

  outer SCF iter =    1 RMS gradient =   0.84E-04 energy =      -5775.1406434499

  ----------------------------------- OT ---------------------------------------
[...]
      -0.38500378     -0.38483773     -0.38472229     -0.38469646
      -0.38465909     -0.38452644     -0.38428748     -0.38173163
      -0.37950458     -0.37744072     -0.37554484     -0.37531283
      -0.37518720     -0.37480641     -0.37364095     -0.37355431
      -0.37337844     -0.37274770     -0.37262281     -0.37202336
      -0.37192006     -0.37141980     -0.37113793     -0.37084297
      -0.37077698     -0.37062302     -0.37041761     -0.37035204
      -0.37028575     -0.37024756     -0.37014657     -0.36970235
      -0.36953746     -0.36939388     -0.36931931     -0.36912627
      -0.36906889     -0.36886025     -0.36861660     -0.36818547
      -0.36741119     -0.36710268     -0.36707494     -0.36702106
      -0.36694259     -0.36681486     -0.36671088     -0.36656230
      -0.36528812     -0.36524612     -0.36520831     -0.36480540
      -0.36412519     -0.36378660     -0.36369231     -0.36368326
      -0.36363613     -0.36345175     -0.36339677     -0.36337604
      -0.36323890     -0.36305891     -0.36263326     -0.36222311
      -0.36193806     -0.36172996     -0.36140139     -0.36130304
      -0.36082802     -0.36047924     -0.36046124     -0.36031599
      -0.35991661     -0.35985697     -0.35976234     -0.35971885
      -0.35964552     -0.35949531     -0.35933596     -0.35917929
      -0.35900367     -0.35889243     -0.35887972     -0.35870537
      -0.35862918     -0.35843905     -0.35829926     -0.35829271
      -0.35643956     -0.35636710     -0.35617578     -0.35608746
      -0.35595159     -0.35575600     -0.35552819     -0.35541882
      -0.02779094      0.01671091      0.02213441      0.02537429
       0.02568446      0.02597204      0.02625055      0.02627020
       0.02631441      0.02655788      0.02737728      0.02743402
       0.02749062      0.02753031      0.02780877      0.02785723
       0.02794556      0.02814243      0.02827000      0.02861914
       0.02885321      0.02892203      0.02897835      0.02920599
       0.02929900      0.02936214      0.02985265      0.02993546
       0.03000073      0.03008985      0.03035451      0.03114220
       0.03151194      0.03192315      0.03230223      0.03241051
       0.03249742      0.03251632      0.03262988      0.03267842
       0.03315704      0.03319026      0.03343066      0.03359299
       0.03408364      0.03445293      0.03462161      0.03491415
       0.03498755      0.03681603      0.03939087      0.03959747
       0.03981224      0.04058519      0.04077766      0.04080147
       0.04101812      0.04115406      0.04136546      0.04143272
       0.04200775      0.04204373      0.04208975      0.04218857
       0.04222208      0.04223400      0.04228450      0.04240843
       0.04245448      0.04254183      0.04275043      0.04313175
       0.04329527      0.04398967      0.04792191      0.04856215
       0.05062109      0.05094564      0.05148695      0.05170325
       0.05179902      0.05189573      0.05199872      0.05202118
       0.05239083      0.05240992      0.05243718      0.05274813
       0.05290384      0.05296766      0.05319507      0.05344046
       0.05382606      0.05396995      0.05451525      0.05493056
       0.05497472      0.05506854      0.05518175      0.05545429
       0.05557106      0.05559815      0.05569817      0.05582483
       0.05614910      0.05663136      0.05712779      0.05748283
       0.05749724      0.05757472      0.05788838      0.05809803
       0.06128713      0.06361274      0.06375849      0.06392774
       0.06448031      0.06461133      0.06466039      0.06473657
       0.06490058      0.06497468      0.06504858      0.06514908
       0.06548578      0.06671212      0.06690309      0.06729494
       0.06754458      0.07219347      0.07332852      0.07359229
       0.07386137      0.07615424      0.07633910      0.07648915
       0.07676934      0.07772798      0.07825740      0.07836014
       0.07839513      0.07844077      0.07845260      0.07863700
       0.07875181      0.07879601      0.07901334      0.07903392
       0.07922528      0.07948562      0.07953949      0.07963844
       0.08183093      0.08521210      0.08566625      0.08614701
       0.08652673      0.08675973      0.08705403      0.08709909
       0.08720998      0.08736382      0.08740658      0.08755308
       0.08982426      0.09048712      0.09218294      0.09231428
       0.09241644      0.09289407      0.09310578      0.09317351
       0.09350421      0.09354793      0.09593111      0.09674901
       0.09695753      0.09742819      0.09762720      0.09826382
       0.09842252      0.09854030      0.09903417      0.09925820
       0.09931204      0.09933308      0.10009016      0.10046706
       0.10063746      0.10083802      0.10165979      0.10187554
       0.10241740      0.10253514      0.10316161      0.10326562
       0.10352766      0.10410458      0.10427816      0.10433127
       0.10455489      0.10466649      0.10509305      0.10522371
       0.10544528      0.10588863      0.10634793      0.10773073
       0.10794658      0.10836413      0.10856940      0.10868662
       0.10972135      0.10979783      0.11006308      0.11011829
       0.11019009      0.11037305      0.11050759      0.11060662
       0.11072530      0.11105010      0.11116052      0.11149983
       0.11167220      0.11193900      0.11196910      0.11213902
       0.11267186      0.11277202      0.11281657      0.11308305
       0.11314502      0.11320651      0.11332838      0.11335068
       0.11346703      0.11353925      0.11398395      0.11405293
       0.11443602      0.11444519      0.11496814      0.11534951
       0.11552253      0.11571162      0.11577126      0.11585054
       0.11608647      0.11635749      0.11642970      0.11660355
       0.11667271      0.11933500      0.12028683      0.12064376
       0.12134687      0.12235739      0.12248739      0.12266186
       0.12294978      0.12410371      0.12976765      0.13167032
       0.13245407      0.13308867      0.13332070      0.13351432
       0.13460436      0.13484945      0.13670897      0.13704051
       0.13866975      0.13898934      0.13947812      0.13959241
       0.13973498      0.14031139      0.14054516      0.14097443
       0.14173848      0.14219070      0.14279164      0.14281378
       0.14299143      0.14317133      0.14399360      0.14424051
       0.14427915      0.14437637      0.14443527      0.14479775
       0.14487961      0.14516326      0.14540776      0.14568833
       0.14572692      0.14709913      0.14798193      0.14890224
       0.14897881      0.14905186      0.14936248      0.14946463
       0.14951691      0.14976847      0.14985755      0.14998660
       0.15004506      0.15076645      0.15259548      0.15284867
       0.15344638      0.15382772      0.15467517      0.15492674
       0.15501010      0.15511648      0.15582308      0.15762920
       0.15950639      0.15960409      0.15976583      0.15996896
       0.16094112      0.16100770      0.16111747      0.16143329
       0.16176466      0.16185174      0.16206357      0.16213368
       0.16219062      0.16228616      0.16234329      0.16264690
       0.16282843      0.16300110      0.16346881      0.16397931
       0.16404361      0.16425166      0.16488359      0.16495133
       0.16499292      0.16520838      0.16554117      0.16561560
       0.16634217      0.16657638      0.16691097      0.16719473
       0.16731938      0.16734745      0.16759562      0.16827092
       0.16841249      0.16842853      0.16864925      0.16870652
       0.16887672      0.16908665      0.16913920      0.16943513
       0.16960026      0.16980954      0.17206442      0.17362558
       0.17405869      0.17439093      0.17454464      0.17466697
       0.17484729      0.17514212      0.17597855      0.17600799
       0.17617097      0.17624945      0.17933503      0.18023044
       0.18057565      0.18079136      0.18191244      0.18196787
 Fermi Energy [eV] :    4.951598
  
  Eigenvalues of the occupied subspace spin            2
 ---------------------------------------------
      -1.94011127     -1.93957767     -1.93884081     -1.93833209
      -1.93799690     -1.93787063     -1.93767474     -1.93757976
      -1.93754793     -1.93744403     -1.93742071     -1.93730484
      -1.93726581     -1.93717758     -1.93713573     -1.93701327
      -1.93699802     -1.93693761     -1.93686777     -1.93684907
      -1.93679562     -1.93675778     -1.93673134     -1.93667307
      -1.93662268     -1.93658233     -1.93655785     -1.93652374
      -1.93642952     -1.93640355     -1.93633405     -1.93631062
      -1.93627567     -1.93625469     -1.93621672     -1.93617512
      -1.93612768     -1.93608168     -1.93604197     -1.93600486
      -1.93596823     -1.93589264     -1.93585837     -1.93581061
      -1.93580095     -1.93576959     -1.93570271     -1.93564281
      -1.93563378     -1.93561276     -1.93547320     -1.93543728
      -1.93540400     -1.93537314     -1.93529950     -1.93523540
      -1.93517798     -1.93510678     -1.93509269     -1.93497112
      -1.93479648     -1.93478603     -1.93466707     -1.93428514
      -1.01795179     -1.01724173     -1.01688665     -1.01682666
      -1.01658965     -1.01627559     -1.01606935     -1.01602576
      -1.01577866     -1.01552649     -1.01549983     -1.01543926
      -1.01535074     -1.01523507     -1.01512929     -1.01506029
      -1.01502004     -1.01486465     -1.01482866     -1.01482201
      -1.01471227     -1.01433383     -1.01420971     -1.01419238
      -1.01410059     -1.01363609     -1.01350764     -1.01340760
      -1.01312628     -1.01300309     -1.01282252     -1.01275198
      -1.01267317     -1.01261257     -1.01259038     -1.01255594
      -1.01252641     -1.01240848     -1.01231397     -1.01227224
      -1.01220211     -1.01218340     -1.01212399     -1.01186066
      -1.01181810     -1.01175217     -1.01152607     -1.01131620
      -1.01116292     -1.01108942     -1.01087125     -1.01083326
      -1.01080226     -1.01069204     -1.01051476     -1.01046272
      -1.01040195     -1.01032409     -1.01003595     -1.01001022
      -1.00991160     -1.00983557     -1.00980072     -1.00960700
      -1.00955274     -1.00951113     -1.00945389     -1.00942380
      -1.00937308     -1.00934913     -1.00932697     -1.00921538
      -1.00918852     -1.00906541     -1.00893378     -1.00891226
      -1.00885801     -1.00882543     -1.00880056     -1.00874449
      -1.00871169     -1.00865906     -1.00858107     -1.00855508
      -1.00852229     -1.00850986     -1.00844853     -1.00838916
      -1.00833954     -1.00825926     -1.00823426     -1.00819796
      -1.00815142     -1.00810991     -1.00809133     -1.00805476
      -1.00797729     -1.00795871     -1.00790946     -1.00786679
      -1.00781149     -1.00779687     -1.00775467     -1.00771124
      -1.00769601     -1.00764685     -1.00760994     -1.00758281
      -1.00750004     -1.00746283     -1.00739883     -1.00729255
      -1.00726337     -1.00720475     -1.00718636     -1.00711822
      -1.00707071     -1.00696404     -1.00692569     -1.00690118
      -1.00684484     -1.00683586     -1.00676575     -1.00664225
      -1.00647844     -1.00639039     -1.00627196     -1.00620398
      -1.00601549     -1.00589256     -1.00572195     -1.00554991
      -1.00552257     -1.00544320     -1.00535109     -1.00522853
      -1.00520829     -1.00513196     -1.00509460     -1.00505678
      -1.00497473     -1.00492446     -1.00491190     -1.00486403
      -1.00477298     -1.00473767     -1.00468376     -1.00465239
      -1.00458068     -1.00452283     -1.00449196     -1.00447230
      -1.00444051     -1.00439034     -1.00434631     -1.00426768
      -1.00421147     -1.00417479     -1.00412705     -1.00409722
      -1.00404457     -1.00394590     -1.00391688     -1.00388165
      -1.00387628     -1.00381967     -1.00375847     -1.00369773
      -1.00364951     -1.00359213     -1.00354644     -1.00349077
      -1.00346571     -1.00344535     -1.00338236     -1.00332929
      -1.00322729     -1.00310189     -1.00307240     -1.00297471
      -1.00292576     -1.00289254     -1.00279827     -1.00257486
      -1.00251071     -1.00247374     -1.00242648     -1.00222155
      -1.00196437     -1.00190780     -1.00172833     -1.00145885
      -0.42129122     -0.41257615     -0.41201666     -0.41184074
      -0.41172618     -0.40241707     -0.40196385     -0.40123732
      -0.40102798     -0.40091216     -0.40038733     -0.40019568
      -0.40011251     -0.39956824     -0.39926087     -0.39828264
      -0.39807045     -0.39805611     -0.39784282     -0.38962791
      -0.38874357     -0.38778839     -0.38773000     -0.38759862
      -0.38749738     -0.38736170     -0.38714752     -0.38627339
      -0.38606156     -0.38560455     -0.38531776     -0.38499578
      -0.38483552     -0.38472170     -0.38463494     -0.38455349
      -0.38444458     -0.38428889     -0.38424253     -0.37979431
      -0.37774891     -0.37554464     -0.37524450     -0.37503602
      -0.37464998     -0.37379899     -0.37319579     -0.37293856
      -0.37238399     -0.37232169     -0.37170173     -0.37136897
      -0.37134119     -0.37121780     -0.37084311     -0.37078627
      -0.37059661     -0.37040418     -0.37035472     -0.37029343
      -0.37016900     -0.36960232     -0.36937731     -0.36932198
      -0.36931594     -0.36926457     -0.36903394     -0.36886371
      -0.36873482     -0.36847566     -0.36845795     -0.36753185
      -0.36700190     -0.36698461     -0.36676608     -0.36672747
      -0.36671421     -0.36658022     -0.36639148     -0.36533796
      -0.36511941     -0.36476416     -0.36454270     -0.36390947
      -0.36378706     -0.36374070     -0.36354470     -0.36344026
      -0.36341014     -0.36337144     -0.36334218     -0.36319878
      -0.36249643     -0.36237966     -0.36219352     -0.36202497
      -0.36153420     -0.36110539     -0.36108492     -0.36083000
      -0.36045487     -0.36030942     -0.35993086     -0.35985342
      -0.35972955     -0.35971520     -0.35961833     -0.35948982
      -0.35935046     -0.35919494     -0.35902333     -0.35891275
      -0.35884676     -0.35872688     -0.35865190     -0.35846902
      -0.35842976     -0.35827027     -0.35814311     -0.35656597
      -0.35634385     -0.35613255     -0.35599468     -0.35580266
      -0.35553431     -0.35549028     -0.35537831     -0.34543809
       0.02479500      0.02520513      0.02542402      0.02604342
       0.02612374      0.02638193      0.02650650      0.02654112
       0.02749995      0.02752112      0.02760314      0.02771361
       0.02801559      0.02806227      0.02811612      0.02830335
       0.02850924      0.02875227      0.02882711      0.02896453
       0.02903056      0.02931245      0.02953915      0.02959819
       0.03000070      0.03012570      0.03023008      0.03035669
       0.03087654      0.03116197      0.03149446      0.03189895
       0.03230454      0.03234456      0.03249610      0.03255926
       0.03260590      0.03272362      0.03276781      0.03281691
       0.03328616      0.03349506      0.03360217      0.03375979
       0.03477771      0.03504243      0.03510614      0.03519078
       0.03838952      0.03961802      0.04027854      0.04062435
       0.04098746      0.04103057      0.04113476      0.04143519
       0.04154132      0.04159428      0.04173152      0.04184812
       0.04207166      0.04217863      0.04220094      0.04225248
       0.04243442      0.04245405      0.04249065      0.04260957
       0.04277839      0.04317278      0.04331791      0.04399198
       0.04456817      0.05022428      0.05052101      0.05114829
       0.05136984      0.05162681      0.05174595      0.05180352
       0.05203596      0.05212260      0.05220030      0.05234417
       0.05253965      0.05283611      0.05300214      0.05301615
       0.05310104      0.05325771      0.05331948      0.05438061
       0.05469403      0.05474466      0.05503179      0.05506616
       0.05546092      0.05557798      0.05560640      0.05564857
       0.05570510      0.05592466      0.05598899      0.05670117
       0.05697620      0.05736828      0.05742359      0.05762443
       0.05773832      0.05776323      0.05818352      0.06342310
       0.06370414      0.06426137      0.06446790      0.06470077
       0.06483374      0.06492915      0.06499241      0.06505518
       0.06511570      0.06517927      0.06521320      0.06536108
       0.06680830      0.06705236      0.06731779      0.06757722
       0.07295389      0.07334897      0.07383899      0.07403322
       0.07644460      0.07727336      0.07732483      0.07753249
       0.07831327      0.07837947      0.07849935      0.07858827
       0.07867583      0.07880999      0.07885939      0.07896343
       0.07908561      0.07927228      0.07932050      0.07942206
       0.07961037      0.07975407      0.07998580      0.08134236
       0.08594417      0.08617550      0.08678440      0.08692455
       0.08703547      0.08719017      0.08719920      0.08751923
       0.08767711      0.08778905      0.08791390      0.08936869
       0.09233496      0.09234890      0.09254895      0.09272350
       0.09331515      0.09334172      0.09343501      0.09378163
       0.09610300      0.09657029      0.09709925      0.09718077
       0.09792685      0.09855725      0.09877979      0.09885609
       0.09890384      0.09922966      0.09943997      0.09952063
       0.10030771      0.10042078      0.10065880      0.10068741
       0.10198528      0.10218280      0.10251471      0.10260770
       0.10312124      0.10381085      0.10393603      0.10409925
       0.10438056      0.10462873      0.10494955      0.10508218
       0.10529806      0.10543448      0.10567454      0.10623901
       0.10637264      0.10716712      0.10832432      0.10880115
       0.10900626      0.10919585      0.10939336      0.10979486
       0.11006964      0.11025844      0.11031411      0.11043505
       0.11053920      0.11056639      0.11065766      0.11089428
       0.11149720      0.11172996      0.11188470      0.11212899
       0.11218104      0.11246192      0.11259590      0.11276069
       0.11292841      0.11299155      0.11309250      0.11332618
       0.11338034      0.11343745      0.11355274      0.11369343
       0.11404201      0.11428464      0.11446818      0.11466631
       0.11498017      0.11535767      0.11570646      0.11581138
       0.11595696      0.11614340      0.11656080      0.11672619
       0.11692796      0.11729377      0.11747222      0.11793082
       0.11810591      0.12136129      0.12145485      0.12155443
       0.12239871      0.12259667      0.12303552      0.12335867
       0.12353166      0.13250958      0.13286509      0.13374108
       0.13419986      0.13462447      0.13496409      0.13549039
       0.13631122      0.13644674      0.13762148      0.13902351
       0.13950664      0.13968454      0.13972160      0.13983291
       0.14146914      0.14164279      0.14177941      0.14270361
       0.14316031      0.14354837      0.14367228      0.14401028
       0.14407866      0.14429125      0.14435430      0.14459316
       0.14477205      0.14491554      0.14502534      0.14524887
       0.14581382      0.14623657      0.14629224      0.14642606
       0.14712530      0.14914232      0.14952412      0.14970316
       0.14974328      0.14980400      0.14992210      0.14998818
       0.15005212      0.15035147      0.15044092      0.15055733
       0.15163711      0.15367825      0.15422381      0.15466022
       0.15504407      0.15518507      0.15539442      0.15581549
       0.15595369      0.15611820      0.15762134      0.16009377
       0.16081330      0.16114865      0.16124740      0.16156979
       0.16173916      0.16180758      0.16188226      0.16207271
       0.16224968      0.16228253      0.16258925      0.16271608
       0.16274610      0.16285235      0.16320704      0.16341699
