     192
 i =        7, E =     -5775.4821026974
Ti         0.0025806150        0.0243054403       -0.0061202023
Ti         1.8897047716        1.8899951838        4.8069519290
Ti         0.0020984074        1.8889044841        2.4052795158
Ti         1.8912500977        0.0044673938        7.2110579746
Ti         0.0022117696        3.7793096817       -0.0003556848
Ti         1.8939161887       13.2396362814        4.8067312632
Ti        11.3490552780        1.8896313472        2.4064318063
Ti         5.6688574871        0.0021237242        7.2162377910
Ti         1.8896579569        3.7764399460        7.2105649201
Ti         0.0051185156       13.2416391960        2.4182106155
Ti         5.6689926137        1.8886292899        4.8032834019
Ti        11.3460112930        0.0166844950       -0.0053921801
Ti         3.7805901116        0.0028416085       -0.0015095679
Ti        13.2372883660        1.8919915594        4.8070123026
Ti        13.2370077116        0.0130586218        7.2099683835
Ti         3.7774109126        1.8893069195        2.4052011222
Ti         1.8897104439        5.6673868918        4.8114428803
Ti         0.0625950748       11.3402326936        0.0157332204
Ti         0.0029585154        5.6668688829        2.3999640846
Ti         1.8881457268       11.3499222918        7.2038385674
Ti         0.0074253263        7.5559681154        0.0036814552
Ti         1.8932656877        9.4602336930        4.8095744776
Ti         7.5690233466        1.8889981373        2.4083963634
Ti         9.4599395634        0.0046729715        7.2136043961
Ti         1.8906918706        7.5664692816        7.2059436836
Ti         0.0093503005        9.4589327563        2.4080612846
Ti         9.4612101737        1.8891904147        4.8057023906
Ti         7.5679117886        0.0029818536       -0.0052872568
Ti         3.7768847747        3.7764444594       -0.0001521276
Ti        13.2363334649       13.2474769246        4.8052373975
Ti        11.3495443019        5.6683124682        2.4037194771
Ti         5.6685919117       11.3507251220        7.2119508041
Ti        13.2378271431        3.7755619895        7.2105408543
Ti         3.7809538916       13.2391207132        2.4057851069
Ti         5.6683268999        5.6679521572        4.8077932524
Ti        11.2918586771       11.3729008124        0.0103065547
Ti        11.3441806362       13.2408926060        2.4125447964
Ti         5.6686583410        3.7759221826        7.2143055657
Ti         3.7950749281       11.3501577431        0.0054658471
Ti        13.2383126966        5.6642110102        4.8116054743
Ti         5.6692799958       13.2383736325        4.8029829078
Ti        11.3495795388        3.7690419295       -0.0029832015
Ti        13.2379719987       11.3511656304        7.1627732870
Ti         3.7769728789        5.6676376473        2.4005619267
Ti         3.7779156499        7.5680396614        0.0046016738
Ti        13.2405337354        9.4535761917        4.8086747619
Ti         7.5682530177        5.6671144513        2.4041459635
Ti         9.4619576218       11.3523443790        7.2046369095
Ti        13.2390074218        7.5574570369        7.2022688784
Ti         3.7796211698        9.4610611429        2.4024008350
Ti         9.4607383250        5.6661437327        4.8103175802
Ti         7.5503606173       11.3516368079        0.0021696060
Ti        11.3467410120        9.4594801111        2.4256936019
Ti         5.6684821561        7.5688609796        7.2097089582
Ti         5.6677247016        9.4621572830        4.8060841927
Ti        11.3497370111        7.5352780098       -0.0046336544
Ti         9.4609912148        3.7750081081        7.2117114981
Ti         7.5663323738       13.2395565995        2.4088536850
Ti         7.5689229398        3.7751859100       -0.0035126678
Ti         9.4578841384       13.2406219356        4.8052627000
Ti         7.5631501613        7.5681029523        0.0020892577
Ti         9.4552914707        9.4611009289        4.8090596796
Ti         7.5632348063        9.4614870903        2.4062086724
Ti         9.4590304645        7.5661139517        7.2044543523
O        -0.0007743716       -0.0046602149        1.9774034996
O         1.8821893023        1.8873201484        6.7945508214
O         0.0010258104        1.8819495838        4.3919798994
O         1.8852630591       -0.0115966216        9.2006848973
O         1.8816080799        0.0010076665        5.2240733677
O        -0.0012624823        1.8947047589        0.4206773675
O         1.8865454487        1.8818029477        2.8194845215
O         0.0005814236       -0.0081103493        7.6273825887
O        -0.0009510427        3.7750771762        1.9815857538
O         1.8763441782       13.2358776032        6.7976060043
O        11.3516681114        1.8825872003        4.3914250137
O         5.6728879114       -0.0013852571        9.1983836970
O         1.8829927107        3.7759285228        5.2280850612
O        -0.0329209715       13.2324649674        0.4031360389
O         5.6722967817        1.8836963703        2.8191842903
O        11.3527731492       -0.0063094603        7.6274054031
O         3.7745767027       -0.0016088318        7.6332631500
O        13.2368899751        1.8806338362        2.8185159160
O        13.2370876919       -0.0169725818        9.2008520530
O         3.7754067317        1.8834879253        4.3875429684
O         1.8821921732        5.6724788297        6.7956215969
O        -0.0118523968       11.3537280219        1.9863555986
O        -0.0028589333        5.6709805027        0.4182053659
O         1.8789614886       11.3510959216        5.2211668078
O        -0.0032025771        7.5703445998        1.9840462514
O         1.8764847297        9.4635318091        6.7942566344
O         7.5672878329        1.8837231418        4.3920174610
O         9.4633543351       -0.0051671832        9.1955790785
O         1.8816450512        7.5674389412        5.2231753233
O        -0.0309077308        9.4605118890        0.4141176695
O         9.4636199773        1.8830884281        2.8226377730
O         7.5672739425       -0.0018573116        7.6277037340
O         3.7664525580        0.0011126464        1.9874252883
O        13.2380205946        1.8900344003        6.7925231858
O         0.0011059596        5.6585629387        4.3913366246
O         1.9132284552       11.3563626754        9.1898239070
O        13.2381027427        0.0035541083        5.2263799973
O         3.7667594527        1.8868942910        0.4158680286
O         1.8867704717        5.6581442257        2.8197521384
O        -0.0157990701       11.3559936486        7.6510104747
O        11.3563290986        1.8885224080        0.4209103782
O         5.6556511408        0.0008128564        5.2238216993
O         5.6557335236        1.8869422786        6.7949741796
O        11.3565764632       -0.0020700247        1.9825414370
O         1.8867484324        3.7692968919        9.1992812241
O         0.0011167047       13.2338660127        4.3980393773
O         0.0012740211        3.7695924824        7.6260769014
O         1.8875778354       13.2347282913        2.8183776415
O         3.7684787441        3.7756830895        1.9840041349
O        13.2380997392       13.2381652556        6.8032149167
O        11.3516974637        5.6596304448        4.3927121817
O         5.6721784249       11.3533712334        9.1920206556
O        13.2375441076        3.7758109365        5.2301404648
O         3.7639400023       13.2364981106        0.4149984984
O         5.6721299639        5.6574962703        2.8189205663
O        11.3680691564       11.3485313152        7.6488364619
O        11.3816440188       13.2445760209        0.4136523682
O         5.6561606101        3.7757987633        5.2271106166
O         3.7714867574       11.3537503526        7.6347354901
O        13.2366960141        5.6614271568        2.8181403567
O         5.6556937736       13.2362561363        6.7960829169
O        11.3549692889        3.7774241248        1.9814119914
O        13.2362672109       11.3466290554        9.2286193521
O         3.7753396019        5.6574100719        4.3876550016
O         5.6565712124        5.6727850579        6.7966122932
O        11.3655163436       11.3450068507        1.9823737222
O        13.2368871399        3.7702912821        9.2000474983
O         3.7763591248       13.2361087010        4.3858235018
O        11.3554486462        5.6599140777        0.4206509399
O         5.6561595003       11.3511207423        5.2234816405
O         3.7754910337        3.7696190111        7.6308122239
O        13.2359611546       13.2298945771        2.8137134838
O        13.2373404434       11.3511214795        5.1968185654
O         3.7680649799        5.6726770061        0.4148844608
O         5.6727311261       13.2360947671        2.8208574856
O        11.3515198823        3.7705301099        7.6253431365
O         3.7655556877       11.3513010327        1.9910006014
O        13.2368806134        5.6695737066        6.7944779604
O        11.3511996707       13.2329475668        4.3934082862
O         5.6721933733        3.7699928252        9.2002374787
O         3.7676065876        7.5672525760        1.9892190525
O        13.2363138760        9.4614105591        6.8011441334
O         7.5671719492        5.6578213287        4.3922818388
O         9.4381230637       11.3465316472        9.1881743509
O        13.2367123145        7.5650689826        5.2237805491
O         3.7656489013        9.4631066545        0.4178471467
O         9.4638202718        5.6602438237        2.8218538407
O         7.5711165416       11.3530046239        7.6305347990
O        11.3858802037        9.4677730125        0.4005880004
O         5.6566175154        7.5676138694        5.2219172224
O         5.6567976866        9.4634123427        6.7934755205
O        11.3545574973        7.5766068000        1.9748218233
O         9.4635155230        3.7710173806        9.1965531188
O         7.5669341561       13.2357822024        4.3904251056
O         7.5670861297        3.7703028000        7.6264104585
O         9.4622630265       13.2328296130        2.8224975233
O         7.5850636316        0.0011577543        1.9870552418
O         9.4714864138        1.8872017559        6.7943992374
O         0.0019487113        9.4730009596        4.3935091756
O         1.8871062433        7.5889074021        9.1984876091
O         9.4719834877        0.0010477872        5.2245971103
O         7.5845284940        1.8869669573        0.4167378749
O         1.8887195018        9.4727547929        2.8193644238
O        -0.0006116299        7.5897446636        7.6287900676
O         7.5841109062        3.7760125466        1.9835583277
O         9.4771449201       13.2363746215        6.7973634115
O        11.3516059575        9.4723283562        4.4038809082
O         5.6709620881        7.5847597501        9.1982856380
O         9.4708000359        3.7755676119        5.2277182666
O         7.5872616148       13.2365189230        0.4155243423
O         5.6712322880        9.4702263531        2.8206552286
O        11.3522669143        7.5930823776        7.6268841782
O         3.7751745481        7.5850625718        7.6321925024
O        13.2380524474        9.4753136275        2.8115128435
O        13.2363704799        7.6058185966        9.2025569561
O         3.7756336739        9.4704640447        4.3861974790
O         9.4718474356        5.6723481146        6.7966155990
O         7.5876161912       11.3507669284        1.9904463539
O         7.5867027613        5.6730506413        0.4144640820
O         9.4750075304       11.3511517608        5.2206554870
O         7.5869037649        7.5674923420        1.9889351991
O         9.4780971682        9.4638897967        6.7961069404
O         7.5658717101        9.4702099780        4.3905191317
O         9.4660180989        7.6002538516        9.1998252260
O         9.4725762228        7.5675389345        5.2212667286
O         7.5902296875        9.4631441453        0.4179093315
O         9.4624570271        9.4713141019        2.8193006490
O         7.5687647124        7.5848873881        7.6294338941
     192
 i =        8, E =     -5775.4916291539
Ti         0.0010002835        0.0248890451       -0.0092580058
Ti         1.8905460274        1.8903894415        4.8074569057
Ti         0.0033660107        1.8927407985        2.4048973699
Ti         1.8922743208        0.0039644707        7.2114647159
Ti         0.0025590471        3.7767357918        0.0020573533
Ti         1.8960953021       13.2417814769        4.8059638636
Ti        11.3491823632        1.8913321390        2.4087491883
Ti         5.6691922930        0.0036389422        7.2166179964
Ti         1.8901226258        3.7757366093        7.2096625637
Ti         0.0026546826       13.2471183208        2.4204124109
Ti         5.6689911716        1.8890253016        4.8030229452
Ti        11.3488020531        0.0155014741       -0.0047101675
Ti         3.7791215011        0.0030308170       -0.0016611701
Ti        13.2375015764        1.8950339690        4.8061743882
Ti        13.2364031391        0.0156733631        7.2085801831
Ti         3.7772886807        1.8896540910        2.4053097690
Ti         1.8905948981        5.6667221090        4.8117830900
Ti         0.1455092527       11.3444645844        0.0437826396
Ti         0.0029096430        5.6666901487        2.4008618342
Ti         1.8933341023       11.3519253221        7.1974876650
Ti         0.0036193991        7.5551419651        0.0026829365
Ti         1.8962137928        9.4584811100        4.8090517312
Ti         7.5683215931        1.8895409278        2.4085513329
Ti         9.4585660060        0.0046800231        7.2127859109
Ti         1.8922590362        7.5664112125        7.2057161040
Ti         0.0041257457        9.4512991083        2.4141925266
Ti         9.4600198378        1.8900913634        4.8060197563
Ti         7.5680789901        0.0035888286       -0.0057050233
Ti         3.7770388097        3.7761518682       -0.0001218604
Ti        13.2361593608       13.2580681904        4.7991429643
Ti        11.3487957552        5.6649878035        2.4023116040
Ti         5.6696109788       11.3510344320        7.2042659083
Ti        13.2375703266        3.7754647262        7.2096934163
Ti         3.7788489315       13.2404176782        2.4077739211
Ti         5.6688667837        5.6678461733        4.8075621456
Ti        11.2087267605       11.3695045630        0.0360067586
Ti        11.3481143910       13.2513865424        2.4175866721
Ti         5.6688920996        3.7761743616        7.2142012811
Ti         3.8120474401       11.3510956660        0.0059538515
Ti        13.2377052296        5.6607310582        4.8110872149
Ti         5.6693147935       13.2393555488        4.8025416394
Ti        11.3494692172        3.7701992026        0.0003472108
Ti        13.2371435419       11.3501926618        7.1094550729
Ti         3.7775905815        5.6672701034        2.4008930273
Ti         3.7779350849        7.5676108554        0.0035080273
Ti        13.2402761777        9.4422866944        4.8039775282
Ti         7.5688629097        5.6672347869        2.4041125470
Ti         9.4566075973       11.3502002434        7.1978160582
Ti        13.2396342312        7.5551196793        7.2006108458
Ti         3.7790577060        9.4597902896        2.4044481897
Ti         9.4598018465        5.6663633066        4.8110776031
Ti         7.5342881282       11.3508634480        0.0026587207
Ti        11.3493791839        9.4567017147        2.4269574725
Ti         5.6688022744        7.5676711763        7.2105381777
Ti         5.6679933214        9.4611168994        4.8058821947
Ti        11.3518603183        7.5299521341       -0.0090517435
Ti         9.4603288549        3.7765869198        7.2104876923
Ti         7.5670956228       13.2406002560        2.4108524086
Ti         7.5690024566        3.7763289332       -0.0033617720
Ti         9.4550934768       13.2422152787        4.8045908472
Ti         7.5660739323        7.5690032971        0.0015198317
Ti         9.4526076818        9.4591266342        4.8093737258
Ti         7.5668117662        9.4602805419        2.4081518983
Ti         9.4580399404        7.5681669172        7.2055826934
O         0.0053152290       -0.0047751738        1.9724234469
O         1.8836189801        1.8844127078        6.7961191297
O         0.0005542070        1.8843461360        4.3896518179
O         1.8794602080       -0.0039735259        9.2022502717
O         1.8859263476       -0.0004873113        5.2257884311
O        -0.0018888422        1.8852776737        0.4155393336
O         1.8847810797        1.8838915214        2.8204207813
O        -0.0014512593        0.0066971656        7.6278410557
O         0.0011417193        3.7774847069        1.9845749608
O         1.8797524625       13.2321997143        6.7953192364
O        11.3526458683        1.8842624178        4.3915467262
O         5.6720657294       -0.0010356892        9.2004929182
O         1.8845167068        3.7758166250        5.2271877350
O        -0.0707366439       13.2165672759        0.3924953982
O         5.6719059248        1.8839738156        2.8188463049
O        11.3540897182        0.0040257124        7.6300331751
O         3.7733772416        0.0007367084        7.6329508119
O        13.2376908668        1.8829194339        2.8196002375
O        13.2371426697        0.0019194037        9.1968357979
O         3.7745919257        1.8846396465        4.3873373319
O         1.8835225429        5.6744051735        6.7970917468
O         0.0107428930       11.3510313829        1.9921418489
O        -0.0007463174        5.6744321333        0.4141508344
O         1.8830761643       11.3513209849        5.2229458174
O         0.0084345648        7.5733311868        1.9808760290
O         1.8777426445        9.4687353543        6.7943761607
O         7.5679907258        1.8840684182        4.3918807873
O         9.4693925187       -0.0026073264        9.1968979604
O         1.8852354201        7.5695476037        5.2241785176
O        -0.0560728342        9.4797723841        0.4035747861
O         9.4651685073        1.8835512027        2.8231297448
O         7.5689886506        0.0002079421        7.6270724507
O         3.7712595324        0.0000608207        1.9868556519
O        13.2375494950        1.8865459565        6.7957288985
O         0.0001700015        5.6579361708        4.3907751366
O         1.9335748634       11.3484487586        9.1860590142
O        13.2369158890        0.0036207385        5.2277218712
O         3.7685433997        1.8852309974        0.4151207039
O         1.8849051011        5.6586408050        2.8195312650
O        -0.0325649053       11.3512736430        7.6905495822
O        11.3554613470        1.8840735108        0.4171752640
O         5.6561365483        0.0000527111        5.2244916263
O         5.6560731049        1.8864128043        6.7951469329
O        11.3479503784       -0.0009105848        1.9812544593
O         1.8847979128        3.7707935960        9.1984899361
O        -0.0006956120       13.2394471706        4.3907570698
O         0.0004430776        3.7699966628        7.6293443157
O         1.8796176299       13.2351843312        2.8169818131
O         3.7692362786        3.7757320750        1.9842543207
O        13.2356516430       13.2283323820        6.8039128199
O        11.3524002991        5.6588289437        4.3893516046
O         5.6725382028       11.3539005195        9.1874629311
O        13.2379660847        3.7758294392        5.2285964841
O         3.7747662339       13.2341466812        0.4177626652
O         5.6727422982        5.6576873902        2.8181150227
O        11.3840506857       11.3602882359        7.6863801037
O        11.3991150525       13.2228347950        0.4029399299
O         5.6561935574        3.7759231072        5.2268107959
O         3.7727748952       11.3530789310        7.6299447567
O        13.2353679836        5.6627962230        2.8194403799
O         5.6558741497       13.2358142091        6.7955186546
O        11.3535045508        3.7754527631        1.9854329793
O        13.2335524297       11.3471489053        9.2789222482
O         3.7748022069        5.6575149688        4.3880934984
O         5.6561969431        5.6737960015        6.7963528736
O        11.3448916351       11.3501343348        1.9870156657
O        13.2364942159        3.7685469586        9.1974841435
O         3.7748020378       13.2370993041        4.3875521685
O        11.3566901306        5.6684230142        0.4134936218
O         5.6558373976       11.3511831035        5.2219357824
O         3.7746913862        3.7699471366        7.6308392474
O        13.2370604148       13.2397737760        2.8176693119
O        13.2388255270       11.3509585131        5.1915478800
O         3.7681546548        5.6740829943        0.4145799621
O         5.6720489094       13.2366960647        2.8178248175
O        11.3524110438        3.7677036181        7.6296538892
O         3.7726196071       11.3512553666        1.9877575339
O        13.2382294703        5.6728527231        6.7978208519
O        11.3529855588       13.2390112740        4.3923264666
O         5.6723191583        3.7695576663        9.2005234315
O         3.7692519673        7.5688795942        1.9874709360
O        13.2419275460        9.4701206734        6.8011434734
O         7.5683638429        5.6569294156        4.3921608565
O         9.4151061833       11.3625678851        9.1820782895
O        13.2396141431        7.5643104691        5.2259419443
O         3.7713401108        9.4657714019        0.4200303936
O         9.4663547439        5.6602034788        2.8231581402
O         7.5714232053       11.3554919831        7.6252967288
O        11.4192280020        9.4843318664        0.3823467248
O         5.6559741682        7.5690639816        5.2233897963
O         5.6560918363        9.4639370132        6.7930446553
O        11.3490455417        7.5802630530        1.9677374923
O         9.4658077192        3.7673166494        9.1950603238
O         7.5681615066       13.2378911056        4.3923200850
O         7.5681116668        3.7688503791        7.6266334005
O         9.4699945091       13.2353834955        2.8197473113
O         7.5833962504        0.0000065777        1.9865779715
O         9.4704638175        1.8857669221        6.7966780032
O         0.0001553605        9.4685002630        4.3933592621
O         1.8802068966        7.5888837873        9.2019363551
O         9.4687855060       -0.0005006061        5.2244951628
O         7.5843216605        1.8862008940        0.4155383929
O         1.8800425100        9.4714755644        2.8153628355
O        -0.0015323577        7.5805154157        7.6295824695
O         7.5829338230        3.7763000799        1.9841354379
O         9.4759792881       13.2307199757        6.7978827513
O        11.3538116918        9.4690987227        4.3905616010
O         5.6727979140        7.5852146554        9.2017011208
O         9.4693166162        3.7762060437        5.2262674298
O         7.5816403453       13.2337543612        0.4171844891
O         5.6727498262        9.4704298518        2.8170789384
O        11.3550930131        7.5739620264        7.6269588558
O         3.7738157503        7.5838435805        7.6307730802
O        13.2349095763        9.4666632243        2.8170239195
O        13.2344505289        7.5789675636        9.1995349724
O         3.7745743233        9.4694922986        4.3881915319
O         9.4704007801        5.6765837287        6.7982670890
O         7.5793786782       11.3510853627        1.9876698279
O         7.5841576629        5.6758068787        0.4137811086
O         9.4704240281       11.3511648953        5.2221536979
O         7.5800352844        7.5692373356        1.9878101777
O         9.4729128732        9.4676882166        6.7932893510
O         7.5674330659        9.4701077716        4.3927073960
O         9.4740058976        7.5866308716        9.2025335348
O         9.4675139826        7.5699341608        5.2245123179
O         7.5756657693        9.4656323629        0.4209422767
O         9.4720814315        9.4722115965        2.8197863728
O         7.5707030539        7.5823736274        7.6282791169
     192
 i =        9, E =     -5775.4942228159
Ti        -0.0002117430        0.0190912497       -0.0092517152
Ti         1.8908098439        1.8905751310        4.8070460307
Ti         0.0038561434        1.8910707562        2.4047128772
Ti         1.8918581678        0.0059153801        7.2122896615
Ti         0.0033457020        3.7784914499       -0.0003027297
Ti         1.8952007902       13.2424865076        4.8051612355
Ti        11.3482697590        1.8908449230        2.4082771894
Ti         5.6693930088        0.0044123217        7.2165628662
Ti         1.8901827442        3.7769554183        7.2112727786
Ti         0.0016125019       13.2471620992        2.4190205592
Ti         5.6690433398        1.8897444777        4.8029797472
Ti        11.3495100106        0.0138323727       -0.0069884848
Ti         3.7796996774        0.0043207880       -0.0011599220
Ti        13.2375975141        1.8952575391        4.8047392667
Ti        13.2364435228        0.0159065751        7.2112135127
Ti         3.7779961839        1.8899120231        2.4051143938
Ti         1.8906854291        5.6671604732        4.8116507945
Ti         0.1427734022       11.3464487067        0.0427011207
Ti         0.0043399240        5.6672441703        2.4004686385
Ti         1.8977126157       11.3510313516        7.1954527472
Ti         0.0029202540        7.5579645231        0.0006188282
Ti         1.8949328236        9.4582425129        4.8087451364
Ti         7.5683620588        1.8899313205        2.4082775311
Ti         9.4591733874        0.0065624760        7.2141556653
Ti         1.8916377006        7.5658734080        7.2066058720
Ti         0.0041418693        9.4533417984        2.4131818668
Ti         9.4597384868        1.8904541939        4.8058762591
Ti         7.5677200540        0.0046576197       -0.0050323462
Ti         3.7776595384        3.7767386029       -0.0005513849
Ti        13.2362304674       13.2586987206        4.7969650615
Ti        11.3485475465        5.6666530529        2.4027094627
Ti         5.6690538917       11.3512723497        7.1975181828
Ti        13.2375288868        3.7760966809        7.2133874240
Ti         3.7806443313       13.2408003254        2.4063995889
Ti         5.6690060901        5.6676225914        4.8076259390
Ti        11.2119313324       11.3590381110        0.0379383257
Ti        11.3481046258       13.2489557684        2.4174341978
Ti         5.6690297310        3.7763709898        7.2146181014
Ti         3.8127278362       11.3508762072        0.0059764899
Ti        13.2377013636        5.6610105867        4.8090421271
Ti         5.6694183747       13.2409286735        4.8026413496
Ti        11.3490604725        3.7722687661       -0.0021119780
Ti        13.2361868175       11.3510786249        7.1288782160
Ti         3.7778996625        5.6675245385        2.4003787477
Ti         3.7787940653        7.5674789197        0.0047131076
Ti        13.2398378125        9.4410379015        4.8012479819
Ti         7.5682571441        5.6677966379        2.4037596551
Ti         9.4510104899       11.3522575739        7.1954049246
Ti        13.2391783378        7.5559312521        7.2037397653
Ti         3.7803086969        9.4595499421        2.4029698851
Ti         9.4598380327        5.6672798230        4.8104622630
Ti         7.5358234949       11.3518794748        0.0026324543
Ti        11.3507446249        9.4555618062        2.4217199312
Ti         5.6690977852        7.5674868799        7.2102479390
Ti         5.6683691859        9.4597532251        4.8059296795
Ti        11.3530050175        7.5427470214       -0.0085684359
Ti         9.4603994536        3.7764570014        7.2123477223
Ti         7.5662103386       13.2410086944        2.4094224689
Ti         7.5685972054        3.7763838818       -0.0038397659
Ti         9.4560646061       13.2426822283        4.8039207236
Ti         7.5660529409        7.5683054614        0.0023762101
Ti         9.4540302049        9.4587277280        4.8077394701
Ti         7.5654256267        9.4601599834        2.4066034128
Ti         9.4589066815        7.5669129007        7.2066693343
O         0.0058483304       -0.0040374857        1.9730698589
O         1.8848926090        1.8869224059        6.7951060530
O         0.0011864203        1.8840018208        4.3897890989
O         1.8823378544       -0.0063051110        9.2022479075
O         1.8852896717        0.0001100576        5.2260118759
O        -0.0011144311        1.8863371919        0.4143194647
O         1.8861941218        1.8841867561        2.8202659337
O        -0.0000839518        0.0018674493        7.6253930555
O         0.0010677842        3.7762873425        1.9829806054
O         1.8797271153       13.2332198240        6.7948292422
O        11.3522533835        1.8843429882        4.3914327800
O         5.6723916394        0.0000711796        9.1997096894
O         1.8846299474        3.7760239667        5.2284008843
O        -0.0570085984       13.2160191330        0.4002058086
O         5.6723155061        1.8845810911        2.8193234857
O        11.3529892656        0.0011674685        7.6267110197
O         3.7739253785       -0.0003800571        7.6332089540
O        13.2371855339        1.8830704338        2.8189466168
O        13.2358348132        0.0073982764        9.1969228863
O         3.7750783594        1.8845045807        4.3870863528
O         1.8848329420        5.6743056212        6.7959133504
O         0.0202569661       11.3520748754        1.9948270346