     192
 i =        7, E =     -5775.4821026974
Ti         0.0001117504        0.0000728435       -0.0001475760
Ti         0.0003819286        0.0002536084       -0.0003037410
Ti         0.0005559654        0.0007354962        0.0011307331
Ti         0.0002716746        0.0004734821        0.0006988546
Ti         0.0004802495        0.0000251984       -0.0001551557
Ti         0.0013660565        0.0011065714        0.0003096072
Ti        -0.0000458406        0.0010113855        0.0017322558
Ti        -0.0001077140        0.0007566625       -0.0002934840
Ti         0.0004167894       -0.0002135277        0.0000746880
Ti        -0.0008670214        0.0022059480        0.0000690408
Ti        -0.0000077883        0.0003077573       -0.0000878356
Ti         0.0014509063        0.0030864609       -0.0006947912
Ti        -0.0008228305        0.0006971711       -0.0000213943
Ti        -0.0000780937        0.0011455650       -0.0015001010
Ti         0.0003467318        0.0025599012        0.0014431061
Ti         0.0000461883        0.0000903097        0.0000207173
Ti         0.0003477520       -0.0004996519       -0.0001962470
Ti         0.0308348479        0.0045701137        0.0085536710
Ti         0.0000913638       -0.0009369708        0.0012878932
Ti         0.0070055631        0.0008588516       -0.0042138146
Ti        -0.0021325417       -0.0030605248       -0.0009420158
Ti         0.0013002239       -0.0010682496        0.0004976107
Ti        -0.0003157279        0.0004270680        0.0002150121
Ti        -0.0007439087        0.0008977185       -0.0003400761
Ti         0.0004982511       -0.0008763160       -0.0004906597
Ti        -0.0019720230       -0.0022929413        0.0038041500
Ti        -0.0005358849        0.0005350031       -0.0004338256
Ti        -0.0005878612        0.0007960358        0.0000949966
Ti         0.0003461054       -0.0002517243       -0.0000596203
Ti        -0.0003498569        0.0042630626       -0.0043403088
Ti        -0.0004340793       -0.0007955000        0.0012784141
Ti         0.0002869501        0.0000206723       -0.0033060642
Ti        -0.0001573443        0.0002211634        0.0006792380
Ti        -0.0001902746        0.0009563679       -0.0002508472
Ti         0.0002799377       -0.0002506437        0.0000396318
Ti        -0.0292702032       -0.0077344740        0.0087131774
Ti         0.0015109494        0.0019261852        0.0037100478
Ti         0.0001323133        0.0001100020        0.0000732998
Ti         0.0019902245        0.0006157950        0.0007669443
Ti        -0.0003410073       -0.0009836013       -0.0014141640
Ti         0.0000759875        0.0004258176        0.0005793731
Ti        -0.0003533477        0.0003665698        0.0000047276
Ti        -0.0005993928       -0.0006716226       -0.0324652686
Ti         0.0003924875       -0.0004006708        0.0001016127
Ti         0.0007257149       -0.0008272380        0.0000795231
Ti         0.0000671801       -0.0045256189       -0.0038235987
Ti         0.0001995756        0.0001740376       -0.0001933058
Ti        -0.0070255479       -0.0013862802       -0.0034845473
Ti        -0.0009018686       -0.0017504370        0.0015900069
Ti         0.0006819511       -0.0008680277       -0.0000628417
Ti        -0.0005276488       -0.0000575115       -0.0002937797
Ti        -0.0005175569       -0.0009230814        0.0006525803
Ti         0.0008731797       -0.0023230710       -0.0004296344
Ti         0.0004699810       -0.0006318086       -0.0003789927
Ti         0.0002941342       -0.0007190445        0.0007548543
Ti        -0.0001011289        0.0005598560       -0.0000127136
Ti        -0.0006302717        0.0005829726        0.0001379909
Ti        -0.0003775785        0.0003780399       -0.0000156928
Ti        -0.0002402286        0.0006025566       -0.0000405211
Ti        -0.0013297124        0.0006263029        0.0001566682
Ti         0.0018687452       -0.0001760583       -0.0000374886
Ti        -0.0018565283       -0.0013186872        0.0006441780
Ti         0.0009144609       -0.0012065142       -0.0006928062
Ti        -0.0003308530        0.0003218844        0.0012855591
O         0.0009465164        0.0004152400        0.0001562420
O         0.0003915499       -0.0006731199        0.0003154494
O        -0.0003287874        0.0005464469       -0.0006608775
O        -0.0008886230        0.0020454149       -0.0002115898
O         0.0008309843       -0.0008565763        0.0001460834
O         0.0000638267       -0.0036371869       -0.0017322686
O        -0.0006911798        0.0005146853        0.0002910471
O        -0.0006443407        0.0027291557        0.0000272248
O         0.0004081313        0.0006130203        0.0009594786
O         0.0011243675       -0.0024134003       -0.0009346464
O         0.0005222872        0.0004009336       -0.0004582026
O         0.0000778084        0.0002035975        0.0005896602
O         0.0003459922        0.0000686413       -0.0002460081
O        -0.0025071024       -0.0100099275       -0.0015959564
O         0.0000473614        0.0001213640       -0.0000717491
O         0.0002598068        0.0019588942        0.0003593171
O        -0.0001747614        0.0004997843       -0.0003832134
O        -0.0000984053        0.0006373235        0.0007586685
O        -0.0008663056        0.0040159545       -0.0015915466
O        -0.0003169238        0.0002605746        0.0000319126
O         0.0003796795        0.0008577476        0.0003349192
O         0.0039850408       -0.0017139003       -0.0035033504
O         0.0005730060        0.0016861572       -0.0013474558
O         0.0010079874       -0.0000687629        0.0022021129
O         0.0019079507        0.0016872910        0.0002583997
O         0.0008207109        0.0021912404       -0.0003762752
O         0.0004061100        0.0001288820        0.0000255735
O         0.0015478865        0.0008261715        0.0002621778
O         0.0007291691        0.0011733081        0.0001822791
O        -0.0009355531        0.0100738559       -0.0034188091
O         0.0006136784        0.0002000937        0.0002017706
O         0.0007124728        0.0004755278       -0.0003698484
O         0.0009047598       -0.0005125517        0.0000782904
O        -0.0000782436       -0.0021629656        0.0012997449
O        -0.0002254886       -0.0003273928       -0.0004296927
O        -0.0132970502       -0.0013271554        0.0038995544
O        -0.0001826131       -0.0025705656       -0.0002549916
O         0.0004683922       -0.0004335681       -0.0002005552
O        -0.0006724860       -0.0001314631       -0.0000002910
O        -0.0043449503       -0.0008244005        0.0054798968
O        -0.0003266228       -0.0018508724       -0.0015173030
O         0.0000516497       -0.0003766763        0.0001549014
O         0.0000353963       -0.0004801894        0.0000976411
O        -0.0014142064       -0.0003323454        0.0004975560
O        -0.0006279787        0.0002289076       -0.0001623401
O        -0.0012869915        0.0010728295       -0.0024383098
O        -0.0002239063        0.0000453318        0.0005299240
O        -0.0019111173        0.0003138449        0.0003490956
O         0.0001921587        0.0001069900        0.0001751733
O        -0.0003547891       -0.0079090162        0.0007119537
O         0.0006322436       -0.0004273283       -0.0007861677
O        -0.0002794711        0.0001065389        0.0019504738
O         0.0000800873        0.0000009921       -0.0008722335
O         0.0019309920       -0.0014942662        0.0006902741
O        -0.0001648046       -0.0001122973       -0.0001851178
O         0.0046235004        0.0020689064        0.0049617168
O         0.0002064488       -0.0109349740       -0.0034612685
O        -0.0000322077       -0.0000318341       -0.0000777010
O         0.0002474615       -0.0001031495       -0.0019679125
O        -0.0001094686       -0.0002816981        0.0008531870
O         0.0000068469       -0.0007349997       -0.0003158584
O        -0.0002973488       -0.0010706096        0.0011894739
O        -0.0011589901        0.0007248019        0.0121468149
O        -0.0004188023       -0.0001173437        0.0001439829
O        -0.0001188015        0.0004528454       -0.0000685663
O        -0.0036621951        0.0031383248       -0.0029859839
O        -0.0001341396       -0.0003069535       -0.0008174726
O        -0.0008784844        0.0002716692        0.0005593217
O         0.0000367980        0.0037661568       -0.0023765885
O        -0.0000861244        0.0001058333        0.0006848076
O        -0.0003600502        0.0000467588       -0.0001115960
O        -0.0001441877        0.0019681603        0.0036523944
O         0.0002422541        0.0001700894        0.0144863722
O         0.0001325450        0.0006435298       -0.0001229247
O         0.0000291726        0.0002230319       -0.0009159389
O         0.0005054160       -0.0004698355        0.0006571820
O         0.0012873728       -0.0001227154       -0.0013590698
O         0.0002630226        0.0015484607        0.0011495556
O         0.0013962058        0.0012100043       -0.0012457249
O        -0.0000517860       -0.0000900408        0.0000963849
O         0.0003826501        0.0008393313       -0.0002026326
O         0.0008903318        0.0079048862        0.0002366993
O         0.0003064319       -0.0002855596        0.0001431004
O         0.0109146250        0.0027751436        0.0029967128
O         0.0004887837        0.0022226737       -0.0000465890
O         0.0010964915        0.0011408217        0.0005965810
O         0.0007463421       -0.0003588011        0.0004469691
O         0.0000326305        0.0004027034       -0.0022374785
O         0.0019997100        0.0115927456       -0.0025131441
O        -0.0001567773        0.0006965656        0.0003012374
O        -0.0001829054        0.0007067819       -0.0003758109
O        -0.0008213625        0.0001268724        0.0001821454
O         0.0006604423       -0.0006255065       -0.0003652637
O         0.0008237245        0.0004548371        0.0006375176
O         0.0003352688       -0.0002551044       -0.0001212243
O         0.0021526225        0.0007443209       -0.0004017281
O        -0.0003782825       -0.0005436770        0.0000184009
O        -0.0003212388       -0.0008966350        0.0006035280
O        -0.0011148566       -0.0009183556       -0.0011665144
O        -0.0016859690       -0.0004736962        0.0007155225
O        -0.0006534215       -0.0008393769       -0.0000497751
O        -0.0001423019       -0.0006394364       -0.0003494621
O        -0.0024577888       -0.0004635896       -0.0007464868
O         0.0003236710       -0.0017812895        0.0000257202
O        -0.0002515245       -0.0002131421        0.0002396531
O        -0.0007817860       -0.0020874509       -0.0002212226
O         0.0018258044       -0.0006926072       -0.0043619786
O        -0.0002155456       -0.0000754859        0.0008215388
O        -0.0003381517       -0.0000984055       -0.0003518259
O        -0.0010983141       -0.0009658722        0.0004663998
O        -0.0002413511       -0.0000666876       -0.0010685430
O         0.0011207105       -0.0034299779       -0.0002237000
O        -0.0007580703       -0.0003321317       -0.0004900270
O        -0.0000420900       -0.0016760111        0.0041785864
O         0.0007308800       -0.0055215019       -0.0015062368
O        -0.0009512856       -0.0002528075        0.0007008826
O        -0.0004142952        0.0004589927        0.0001479176
O        -0.0015000599        0.0005791960       -0.0011290282
O        -0.0006567363        0.0002978856       -0.0000316116
O        -0.0010838074        0.0004152651        0.0020372283
O        -0.0012684218        0.0006311181        0.0000741081
O        -0.0014281535        0.0023619298       -0.0014209959
O         0.0006583929       -0.0001112975        0.0008687718
O         0.0009856396       -0.0032858500       -0.0003725480
O        -0.0009665574        0.0010608104        0.0003704493
O        -0.0025918345        0.0014549364        0.0008617039
O         0.0020212860       -0.0000669524        0.0010472433
O         0.0000989822       -0.0005028921       -0.0007426312
     192
 i =        8, E =     -5775.4916291539
Ti        -0.0026546816       -0.0076484110        0.0011322077
Ti        -0.0005290738       -0.0004234250       -0.0000113763
Ti        -0.0000822990       -0.0022860356       -0.0002409469
Ti        -0.0021725479        0.0001607635        0.0015539788
Ti        -0.0004763067        0.0008579652       -0.0011492948
Ti        -0.0012072767        0.0002214145       -0.0005358403
Ti         0.0001514818       -0.0006725974       -0.0002055814
Ti        -0.0000880301        0.0001116276        0.0003574925
Ti        -0.0009273563        0.0000889572        0.0007550991
Ti        -0.0030356222       -0.0013540458       -0.0069947472
Ti        -0.0000014465       -0.0000154439       -0.0001574932
Ti         0.0032828085       -0.0024629897       -0.0012818735
Ti        -0.0016325792        0.0002754763       -0.0002327999
Ti         0.0000173867       -0.0002231145       -0.0006017929
Ti        -0.0001150742       -0.0017247354        0.0036303263
Ti        -0.0003824286       -0.0003628809       -0.0002490196
Ti        -0.0006287319        0.0004835625       -0.0000136852
Ti        -0.0057294570        0.0034279402       -0.0001988146
Ti        -0.0002388799        0.0013503664       -0.0004728693
Ti        -0.0019368636       -0.0005594386       -0.0039243350
Ti        -0.0047272619        0.0036659671       -0.0010253408
Ti        -0.0014124293       -0.0004468006        0.0000152934
Ti         0.0005289604       -0.0002536351       -0.0002813939
Ti         0.0021379519       -0.0003258662        0.0010062788
Ti        -0.0025716608        0.0004651787        0.0009826901
Ti        -0.0039653701        0.0020488718       -0.0032959791
Ti         0.0003106588       -0.0002665837       -0.0000048855
Ti         0.0010373135       -0.0001390030        0.0001307264
Ti        -0.0003723583       -0.0000146271       -0.0002148789
Ti        -0.0002774057        0.0033923624       -0.0019767440
Ti         0.0001598245        0.0038327620       -0.0002653401
Ti         0.0001695134       -0.0000651716       -0.0042092904
Ti        -0.0002908998        0.0004640948        0.0021730281
Ti        -0.0009585422        0.0001304800       -0.0005395990
Ti         0.0001776369        0.0001648144       -0.0001499706
Ti         0.0043726866       -0.0126105069        0.0018134593
Ti         0.0028627812       -0.0039934030       -0.0022784523
Ti         0.0001216495        0.0000870862        0.0004256521
Ti         0.0010909974       -0.0002853490        0.0015791095
Ti        -0.0004068224        0.0007141614       -0.0006283268
Ti         0.0000781234        0.0005404314       -0.0000064206
Ti         0.0004126998       -0.0001587104       -0.0012484952
Ti        -0.0003193212       -0.0001901593        0.0024359289
Ti        -0.0003864892        0.0004938044       -0.0002948337
Ti        -0.0009215828        0.0002428780        0.0002012841
Ti        -0.0002855701       -0.0039549229       -0.0027783241
Ti         0.0006617397        0.0008640357       -0.0006057575
Ti         0.0017305975        0.0002640350       -0.0032011997
Ti        -0.0009028821        0.0017798476        0.0049693627
Ti        -0.0007792493       -0.0004491829       -0.0008332371
Ti         0.0006263143        0.0008873594        0.0000521793
Ti         0.0003446933       -0.0001595240        0.0016253910
Ti         0.0029452548        0.0004337319       -0.0131623440
Ti         0.0005458833        0.0001023252        0.0004447661
Ti         0.0003299475       -0.0008862626       -0.0000803646
Ti         0.0026737124        0.0139481784        0.0027444157
Ti         0.0008846932        0.0003959459        0.0009410497
Ti         0.0009979716       -0.0001906108       -0.0009075594
Ti         0.0006308356        0.0004653242       -0.0001714533
Ti         0.0011740855       -0.0001302748        0.0000177181
Ti         0.0032533289       -0.0000316299       -0.0002492035
Ti         0.0011848146       -0.0006729194       -0.0012673142
Ti         0.0019179672       -0.0005799177       -0.0007977630
Ti         0.0026867098        0.0000031689        0.0028696510
O         0.0002193248        0.0021046277        0.0007930134
O         0.0003529603        0.0013224734       -0.0004906704
O         0.0004604811       -0.0000024209        0.0000545348
O         0.0042109606       -0.0002333402       -0.0007976217
O        -0.0000404283        0.0004029042       -0.0003490644
O         0.0002101271        0.0035488300        0.0001749138
O         0.0011066612        0.0001449204        0.0001334838
O         0.0018109362       -0.0007914603       -0.0019471652
O         0.0000303995       -0.0006605651       -0.0000467804
O         0.0001697490        0.0003928724       -0.0003181921
O        -0.0002296373        0.0000724393       -0.0001067954
O         0.0002519375        0.0002868539       -0.0004187454
O         0.0000757034       -0.0000370678        0.0001058628
O         0.0034021101        0.0018565958        0.0051531595
O         0.0000765450        0.0001617523        0.0002809988
O        -0.0016621489       -0.0004374740       -0.0013357537
O         0.0008408964       -0.0001994669        0.0000209259
O        -0.0003528626        0.0001333858        0.0004801791
O        -0.0017478714        0.0017548879       -0.0011878238
O         0.0003967333        0.0000057188       -0.0000253655
O         0.0003639039       -0.0004214132       -0.0005397408
O         0.0026266030        0.0000258518        0.0027326073
O         0.0000718834       -0.0017359311        0.0006174869
O        -0.0000579644        0.0002347039        0.0010971008
O        -0.0004309194       -0.0006417804        0.0007723424
O         0.0007855129       -0.0005820234       -0.0008471493
O        -0.0003131493        0.0001264902       -0.0000161283
O        -0.0028874458       -0.0002585492       -0.0000412643
O         0.0001583087        0.0001533627       -0.0001556827
O         0.0004120661       -0.0037322259        0.0027786051
O        -0.0009188146        0.0002899438        0.0004688135
O        -0.0004861108       -0.0000374710        0.0000874076
O        -0.0004103754        0.0003800464        0.0004028734
O         0.0000518780        0.0014309359       -0.0007013557
O         0.0006666060       -0.0003546542       -0.0001241100
O        -0.0016935369        0.0011504237        0.0039390604
O         0.0002064402       -0.0007707425       -0.0013880976
O         0.0000893082        0.0007025131        0.0001794666
O         0.0011307798       -0.0003672623        0.0004110615
O         0.0052235910        0.0006337612       -0.0053223264
O        -0.0000529533        0.0021505593        0.0002511252
O        -0.0000660094        0.0003861692       -0.0000987865
O        -0.0000503841        0.0000963819       -0.0001015691
O         0.0002595564        0.0005091400        0.0004319671
O         0.0010756928       -0.0003526769        0.0001830888
O         0.0006128971        0.0000593461        0.0010008134
O         0.0007652490       -0.0001921046       -0.0003742016
O         0.0048948694        0.0007583927        0.0007895822
O         0.0000605126        0.0000024897       -0.0000075207
O         0.0007128899        0.0033499740       -0.0035289261
O        -0.0001910911       -0.0003793776        0.0002647809
O        -0.0003586875        0.0000933691        0.0008414504
O        -0.0000452441       -0.0001781961       -0.0005777312
O        -0.0003988786        0.0000834814        0.0000087152
O        -0.0002812748       -0.0002345570        0.0003720859
O        -0.0054352059       -0.0008052404       -0.0056585606
O         0.0003064708        0.0056260472        0.0026095873
O        -0.0000141319       -0.0000434778        0.0000247200
O         0.0021602367        0.0003125677       -0.0019123026
O         0.0007328945       -0.0004197657        0.0003791121
O        -0.0000546186        0.0002074633       -0.0005298688
O        -0.0000877966       -0.0000834694        0.0000823396
O         0.0017709748        0.0017623971        0.0096196572
O         0.0003336671       -0.0001935017       -0.0000698678
O        -0.0000114366       -0.0001233437       -0.0001104325
O        -0.0026253906        0.0026374162        0.0037703922
O         0.0002481811        0.0000026103        0.0003710380
O         0.0001707324        0.0001187050       -0.0000165211
O        -0.0002787492       -0.0040832744        0.0005656322
O        -0.0000204398        0.0002397919        0.0004024861
O         0.0004186756       -0.0000724403       -0.0000472520
O        -0.0009734607        0.0003598869        0.0034433032
O        -0.0001898529        0.0003306663        0.0081313925
O         0.0002349451       -0.0001509592        0.0000494734
O         0.0000375904        0.0002487413        0.0006898143
O        -0.0003919891        0.0003159799       -0.0006205378
O        -0.0001815864        0.0001681696       -0.0002063224
O         0.0000464883       -0.0018929862       -0.0010557692
O        -0.0001715732        0.0001435306        0.0003247515
O        -0.0001131594        0.0000288837       -0.0002030458
O         0.0000617160        0.0000156736        0.0004137725
O        -0.0011227617       -0.0019999821       -0.0034510162
O        -0.0003928776       -0.0001490658        0.0000858544
O         0.0014279634       -0.0013027955        0.0029046137
O        -0.0003623096        0.0006408780       -0.0015314049
O         0.0004094569       -0.0001232707        0.0001706309
O        -0.0013698777       -0.0004391287        0.0001842701
O        -0.0028812858       -0.0005013545       -0.0021184709
O        -0.0026373663       -0.0009159482        0.0069932134
O         0.0000162272        0.0000215766       -0.0001775421
O         0.0000605685        0.0000648222       -0.0005121833
O        -0.0001530509       -0.0037557349        0.0012910644
O        -0.0011474214        0.0004243099        0.0001798531
O        -0.0002261912       -0.0000299387       -0.0000639018
O        -0.0004169217        0.0001917979       -0.0001494042
O        -0.0038280588        0.0007764377        0.0008257725
O        -0.0000957295        0.0005319448        0.0002115924
O        -0.0003771927        0.0005190884       -0.0006178443
O         0.0005476045       -0.0001880905        0.0002603577
O         0.0037641951        0.0000075660       -0.0004097552
O        -0.0001505215        0.0005054205       -0.0000800638
O        -0.0002522979        0.0001185106        0.0001624843
O         0.0045173430       -0.0005337665        0.0011089126
O         0.0023956680       -0.0000945149       -0.0013636876
O        -0.0000269391       -0.0001768194       -0.0000167832
O        -0.0007388259        0.0016989929       -0.0011670440
O        -0.0002470591       -0.0002873835        0.0023609070
O        -0.0007405995       -0.0003871146       -0.0007122952
O        -0.0000782658       -0.0001268504        0.0000950325
O        -0.0007277128        0.0010044585        0.0003763613
O        -0.0005357969       -0.0002296489        0.0008191417
O        -0.0015639844       -0.0001380440       -0.0031901620
O         0.0006038820       -0.0001105916        0.0002196970
O         0.0028266147       -0.0001103419        0.0043825288
O         0.0036923352       -0.0022981984       -0.0022983893
O         0.0001907636       -0.0000253729       -0.0000396074
O        -0.0004562438       -0.0014255092       -0.0008641523
O        -0.0000553167        0.0005104321       -0.0001199377
O        -0.0002543774       -0.0009206797        0.0004121090
O         0.0001098905        0.0004069239        0.0009025111
O         0.0002761620       -0.0000308106        0.0007230694
O         0.0001105158        0.0001048273       -0.0003764462
O        -0.0002119945       -0.0001316904        0.0002014204
O        -0.0064355797        0.0000483800       -0.0019190555
O         0.0000380998        0.0001369862       -0.0006751626
O         0.0000895608        0.0003839203        0.0000067158
O        -0.0063624948       -0.0006458110        0.0014576237
O        -0.0010797118        0.0002312285       -0.0001662019
     192
 i =        9, E =     -5775.4942228159
Ti        -0.0006233222       -0.0039415775        0.0010664489
Ti        -0.0002855788       -0.0001234704       -0.0000085216
Ti         0.0001304252       -0.0009192559       -0.0005988929
Ti        -0.0010939312       -0.0002292898        0.0009003584
Ti        -0.0001968482       -0.0001329865        0.0000865002
Ti        -0.0004526465        0.0006101019       -0.0004342480
Ti         0.0002161383       -0.0000549175       -0.0003610226
Ti        -0.0002149991        0.0002264935        0.0002426266
Ti        -0.0003130830       -0.0002215540       -0.0000236989
Ti        -0.0007516233       -0.0008978010       -0.0043528841
Ti        -0.0000251052        0.0000512274       -0.0001649906
Ti         0.0017804720       -0.0013333517        0.0000554439
Ti        -0.0014691295        0.0001057974       -0.0003154977
Ti        -0.0000101656        0.0001932814       -0.0003204511
Ti         0.0001563580       -0.0014695791        0.0010829036
Ti        -0.0004206645       -0.0001995632       -0.0000758514
Ti        -0.0002376798        0.0000329881        0.0000123988
Ti        -0.0011742007        0.0025819112       -0.0000599857
Ti        -0.0002327168        0.0004422581       -0.0004019833
Ti        -0.0016300909        0.0003538479       -0.0040779937
Ti        -0.0024290409        0.0017663820       -0.0000040154
Ti        -0.0003270975       -0.0006809666       -0.0002970903
Ti         0.0002806248        0.0000070973        0.0000220684
Ti         0.0009110456       -0.0002941339        0.0000829800
Ti        -0.0010187551        0.0003233600        0.0003017901
Ti        -0.0018469429        0.0010347343       -0.0018166316
Ti         0.0001247763        0.0000378777       -0.0000465202
Ti         0.0004939279        0.0001056270       -0.0000370068
Ti        -0.0001941134       -0.0001775587        0.0000223601
Ti        -0.0000661078        0.0022762183        0.0006097775
Ti        -0.0000345813        0.0018360930       -0.0008890152
Ti         0.0000703187       -0.0000388346       -0.0031726173
Ti        -0.0002006620        0.0003795696        0.0006058586
Ti        -0.0014943826        0.0002364464       -0.0002047514
Ti         0.0000946162       -0.0000257345       -0.0001068894
Ti        -0.0000813924       -0.0066052642        0.0009964962
Ti         0.0014006435       -0.0021869428       -0.0016286573
Ti         0.0000383510        0.0000905550        0.0001280788
Ti         0.0017753949        0.0002507817        0.0016707131
Ti        -0.0002838234       -0.0000206033       -0.0001416138
Ti        -0.0000161744        0.0008214437       -0.0001822597
Ti         0.0002137821        0.0003978684        0.0001292427
Ti        -0.0003048461        0.0001005699       -0.0050487009
Ti        -0.0001739972        0.0000564592        0.0000385870
Ti        -0.0004974639       -0.0000032710       -0.0002706275
Ti        -0.0004972053       -0.0024415126       -0.0000021511
Ti         0.0006042628        0.0002869811       -0.0002662740
Ti         0.0017073605       -0.0004232914       -0.0036700998
Ti        -0.0007745839        0.0012442294        0.0019307168
Ti        -0.0009586140       -0.0002727886        0.0000078082
Ti         0.0002128885        0.0002352334        0.0001461722
Ti        -0.0011518929       -0.0004347046        0.0016752775
Ti         0.0008106943        0.0001675544       -0.0077368211
Ti         0.0003886233       -0.0000692880        0.0004062326
Ti         0.0001312394       -0.0010320889       -0.0002426770
Ti         0.0006864754        0.0076509885        0.0022154881
Ti         0.0002729722        0.0005889240       -0.0000021951
Ti         0.0009690253        0.0000389389       -0.0001533357
Ti         0.0003609943        0.0004553447        0.0001221563
Ti         0.0003180492        0.0004929822       -0.0001198110
Ti         0.0024043241        0.0000174320       -0.0005463956
Ti         0.0005457173       -0.0009118655       -0.0008647141
Ti         0.0019514564       -0.0005132231       -0.0002681393
Ti         0.0011960468        0.0003374333        0.0016475624
O        -0.0002204830        0.0012497539        0.0003278834
O         0.0000242914        0.0001305413        0.0000020190
O         0.0001744246        0.0000461585       -0.0002538755
O         0.0017977031        0.0005070771       -0.0006999212
O         0.0000309713        0.0003965040       -0.0002657322
O         0.0001495541        0.0015255931       -0.0000793775
O         0.0003447327        0.0000934746        0.0001055118
O         0.0008032927        0.0000838978       -0.0004909372
O         0.0001406773       -0.0000058603        0.0000332093
O         0.0004673878       -0.0001086275       -0.0001987973
O        -0.0001073205       -0.0000036972       -0.0003105589
O         0.0001943246        0.0001278707       -0.0000747972
O         0.0000450356        0.0001546027       -0.0000819727
O        -0.0003500756        0.0021157572        0.0023103657
O         0.0000461046        0.0000424829        0.0000521460
O        -0.0009698720        0.0000589763       -0.0002919791
O         0.0006950967        0.0001783794       -0.0000447312
O        -0.0001672519        0.0000101933        0.0004928279
O        -0.0005226619       -0.0000266028       -0.0010788806
O         0.0002842235        0.0000736754        0.0000030868
O         0.0000282669       -0.0001086303        0.0000301776
O         0.0015060109       -0.0005840729        0.0015752358