     192
 i =        1, E =     -5782.9609927385
Ti        -0.0039144384        0.0147550150       -0.0061557069
Ti        -0.0080541028       -0.0034653365       -0.0160009753
Ti        -0.0063413716        0.0015758746       -0.0151894108
Ti        -0.0066011287        0.0090335534        0.0134364208
Ti        -0.0052951358       -0.0061512306        0.0142763336
Ti         0.0035841530        0.0026778533        0.0026359447
Ti         0.0036369338        0.0030203266       -0.0260907123
Ti        -0.0000065575        0.0067002213        0.0043776043
Ti        -0.0002502158       -0.0126555629       -0.0056291024
Ti        -0.0115254458       -0.0036442230        0.0004584029
Ti        -0.0146276990        0.0021337365        0.0002712520
Ti        -0.0048756816       -0.0072253804       -0.0007807177
Ti        -0.0004221639       -0.0051721762       -0.0052117856
Ti         0.0143437029        0.0049105224        0.0229385642
Ti        -0.0141154048        0.0083291212        0.0085212857
Ti         0.0029888126        0.0206215714       -0.0138010091
Ti        -0.0016413191        0.0066887137       -0.0182129563
Ti        -0.0015374671       -0.0012719682       -0.0096238995
Ti         0.0065685114        0.0041477634        0.0042769588
Ti         0.0102450511        0.0073060303       -0.0170317558
Ti        -0.0094572990        0.0073949423       -0.0096149199
Ti        -0.0032266992       -0.0106234219       -0.0316975417
Ti        -0.0018232055       -0.0123868399       -0.0073146250
Ti        -0.0036655677        0.0080275046        0.0007045975
Ti        -0.0011912778       -0.0060546856        0.0094876581
Ti         0.0001096611       -0.0062910088        0.0119687113
Ti        -0.0000094965        0.0012381301        0.0087781962
Ti         0.0142938626        0.0074269411        0.0279855048
Ti         0.0151569051        0.0003818307        0.0057504908
Ti        -0.0105030319        0.0200866689       -0.0079204253
Ti         0.0065243387       -0.0074844460        0.0013884927
Ti        -0.0019961346       -0.0033940675        0.0116619674
Ti         0.0047029972        0.0024050477       -0.0114718113
Ti         0.0053580275        0.0171728103        0.0010253699
Ti         0.0151356760       -0.0086808666       -0.0082904648
Ti         0.0008859040        0.0028923158       -0.0118377137
Ti         0.0008589432        0.0023052082       -0.0017905695
Ti        -0.0034910175        0.0007401574        0.0009101276
Ti        -0.0052569008       -0.0023835005       -0.0160452051
Ti        -0.0107541513        0.0098777670        0.0005338477
Ti        -0.0093147304       -0.0069690687       -0.0061581773
Ti         0.0038805960        0.0136009837        0.0101873444
Ti         0.0078408274        0.0024020392        0.0001399768
Ti         0.0044421119        0.0077774304        0.0057854431
Ti         0.0021044669        0.0101103226       -0.0175365804
Ti         0.0009900424        0.0074671786       -0.0029989960
Ti         0.0027984921        0.0063621270       -0.0022900638
Ti        -0.0077820621        0.0282534104        0.0049613391
Ti        -0.0069951523        0.0000553738        0.0200737450
Ti        -0.0119303622        0.0058339131        0.0005990735
Ti        -0.0032397450        0.0018256008        0.0100355377
Ti         0.0092667785       -0.0000007441       -0.0146776130
Ti         0.0106341465        0.0054235064       -0.0062434217
Ti         0.0058469864       -0.0084083725        0.0053203763
Ti        -0.0126434101        0.0054699049        0.0018024448
Ti         0.0027141942        0.0080984991       -0.0065992936
Ti        -0.0042692715       -0.0022861402       -0.0018415654
Ti         0.0096522957       -0.0072211783       -0.0028194762
Ti         0.0102541954       -0.0026674126        0.0033967473
Ti        -0.0074668458       -0.0083499897        0.0094373088
Ti         0.0015642836        0.0025306421       -0.0047589515
Ti         0.0001987710        0.0008147422        0.0059831385
Ti        -0.0012711028        0.0052928237        0.0043794789
Ti        -0.0112167090        0.0059983052        0.0061697899
O         0.0012682802        0.0014935496       -0.0077379720
O         0.0099185196       -0.0019586885        0.0158464281
O         0.0160913624       -0.0033558884        0.0039183023
O         0.0037321693       -0.0032143456       -0.0046848750
O         0.0008910887       -0.0000019086       -0.0064212852
O         0.0054845424       -0.0018433629       -0.0052549980
O         0.0041953215       -0.0110865062       -0.0009383442
O         0.0162292180       -0.0010256605        0.0046430403
O        -0.0030917293       -0.0036652289       -0.0054764246
O        -0.0005568944       -0.0173534288        0.0022905981
O        -0.0129459801       -0.0004210103        0.0173638273
O        -0.0185821391        0.0045649320       -0.0032306638
O        -0.0048442663        0.0104074093        0.0056640909
O         0.0012336868       -0.0028158233        0.0014984464
O         0.0016167013        0.0060143664       -0.0031972980
O         0.0074559536        0.0008305811        0.0022076954
O         0.0006256437       -0.0036289503       -0.0051070636
O        -0.0009685060        0.0030278668       -0.0079266884
O         0.0081574197        0.0084984289       -0.0078897127
O         0.0060727415        0.0006469405        0.0175549090
O        -0.0042600416        0.0095712423        0.0178132730
O        -0.0021877871       -0.0086103284        0.0031758713
O        -0.0061476886       -0.0112695074        0.0001233266
O        -0.0014603249        0.0149206937        0.0035277769
O        -0.0003234692       -0.0047865625        0.0010316913
O        -0.0096363336       -0.0018923557        0.0193756459
O         0.0174557672        0.0044454337        0.0054493725
O         0.0031315801       -0.0018558396       -0.0053759599
O         0.0085634300       -0.0002474907       -0.0060825554
O        -0.0031413912       -0.0040032927       -0.0013709822
O         0.0041724441       -0.0056384393       -0.0101301732
O        -0.0030959141        0.0025925091       -0.0228777822
O        -0.0007076570       -0.0122614732       -0.0005759521
O         0.0055027512        0.0033764624       -0.0037604163
O         0.0110877264       -0.0009308184       -0.0081335465
O        -0.0135994808        0.0002010943        0.0038895686
O         0.0060508395        0.0102317707        0.0055117082
O         0.0005407725       -0.0051195307        0.0059348617
O        -0.0071718417       -0.0058829715       -0.0085352198
O        -0.0251704043        0.0022534455        0.0099944063
O        -0.0029272756       -0.0151306813        0.0071776018
O        -0.0032718032        0.0143719212       -0.0042464065
O         0.0068129659       -0.0018873654        0.0011647386
O         0.0034474367       -0.0008485411        0.0056922740
O        -0.0135209509       -0.0011830349        0.0058468699
O         0.0068620661        0.0054615916       -0.0102403363
O        -0.0080300831       -0.0005889495       -0.0072441365
O         0.0043181843       -0.0007084411        0.0008497707
O        -0.0079239178       -0.0078133110       -0.0060079677
O         0.0053010977       -0.0183838422        0.0042382670
O         0.0039038911       -0.0003868950        0.0036375916
O         0.0015050002       -0.0006840333       -0.0039231655
O        -0.0032864476       -0.0135592130        0.0007380469
O         0.0009477185        0.0004837403       -0.0107025267
O        -0.0150258403       -0.0049458438        0.0042382254
O         0.0012843282       -0.0003941662       -0.0016260219
O         0.0027822353        0.0116422576       -0.0057842457
O         0.0095373880       -0.0032099947        0.0011978113
O         0.0116446926        0.0003127067        0.0006520080
O         0.0036266930       -0.0040822260        0.0010261700
O        -0.0015098037        0.0005144777        0.0071618766
O        -0.0083807300       -0.0064861236        0.0066816350
O         0.0082660931        0.0011544105       -0.0000311583
O        -0.0099847582        0.0000799418       -0.0017219727
O        -0.0021973668        0.0053474020        0.0045388393
O         0.0109716197       -0.0193748896        0.0076082336
O         0.0010055992       -0.0009833296        0.0055245873
O        -0.0062485581        0.0017003030        0.0106538638
O         0.0048106385       -0.0042276729       -0.0016498718
O        -0.0072446711       -0.0050342370       -0.0035327084
O         0.0074984984       -0.0002730076       -0.0017106827
O         0.0054974431        0.0060496862        0.0124089328
O         0.0014543550       -0.0328808437        0.0035768681
O         0.0029379916       -0.0004559551        0.0008183690
O        -0.0025268942        0.0077711700       -0.0023594924
O         0.0055722528        0.0022078358        0.0021868558
O        -0.0029322799       -0.0130213372        0.0105132132
O         0.0004822761        0.0042659821       -0.0060787053
O         0.0209527779       -0.0037212080        0.0057046333
O        -0.0121539519       -0.0021724851        0.0031516887
O        -0.0025850772       -0.0106814073        0.0090973165
O        -0.0002292433       -0.0084334571        0.0099698746
O         0.0020640946       -0.0008538520        0.0040117555
O        -0.0063790421       -0.0015353689       -0.0087793804
O         0.0017816063       -0.0048959208       -0.0327269994
O        -0.0000845524       -0.0042781317        0.0025901583
O        -0.0182935872       -0.0008039341       -0.0012707280
O         0.0063130149       -0.0026807537        0.0022195918
O         0.0035601433       -0.0030827075        0.0116651766
O        -0.0005225526       -0.0013852048        0.0047522065
O         0.0035245266        0.0010293565       -0.0019831406
O         0.0083412768        0.0023515560       -0.0062912863
O        -0.0116054887       -0.0021391198       -0.0024140188
O         0.0028397586        0.0047422833       -0.0079125568
O         0.0068328243        0.0042500538        0.0055416643
O        -0.0095912029       -0.0085722022       -0.0104463722
O         0.0037129468        0.0191638381       -0.0037368712
O         0.0082271732        0.0034560279        0.0077598853
O        -0.0016078907        0.0084127059       -0.0097598813
O         0.0005799613        0.0097613376        0.0004065914
O         0.0047478304        0.0003469994       -0.0002555220
O        -0.0080340102       -0.0033707093       -0.0075510046
O        -0.0022839091       -0.0070251495        0.0023123320
O         0.0008603297        0.0016806080        0.0029309128
O        -0.0040913622        0.0094865616       -0.0017760216
O        -0.0025859024       -0.0062785376        0.0044220120
O        -0.0079637008        0.0024652211        0.0052389567
O        -0.0033862223       -0.0053124139        0.0080773753
O        -0.0025128868        0.0053760747        0.0010183615
O         0.0017606825        0.0130242523        0.0032751413
O         0.0049385240        0.0026797328        0.0050655586
O         0.0232542111       -0.0018648579        0.0109548395
O        -0.0019688396        0.0041783778       -0.0010502936
O        -0.0125303393       -0.0019058468       -0.0003653386
O         0.0064308975       -0.0032524408       -0.0111893199
O        -0.0031744439       -0.0025043375        0.0081586244
O        -0.0072955780        0.0097594905        0.0003290279
O         0.0026360071        0.0002755742        0.0061196378
O         0.0069083994       -0.0012873557        0.0017783536
O        -0.0017018530        0.0070031196        0.0016827841
O        -0.0065355610       -0.0107156747        0.0039597443
O         0.0010917665       -0.0238313179       -0.0017198025
O         0.0228803560        0.0020478500        0.0016972431
O        -0.0076990346        0.0053529597       -0.0076741995
O         0.0041662230       -0.0038593133       -0.0070753564
O         0.0022152072       -0.0105663221        0.0014583341
O        -0.0213810693        0.0015760676       -0.0060039270
O        -0.0025334529       -0.0043323469        0.0035065373
     192
 i =        2, E =     -5783.0531052584
Ti        -0.0023207678        0.0034752058        0.0025902155
Ti         0.0011705446       -0.0036364373       -0.0044615108
Ti        -0.0037143560       -0.0014179947       -0.0114623925
Ti         0.0009978104        0.0167998463        0.0045830421
Ti         0.0025068717       -0.0030566657        0.0031900771
Ti        -0.0037010728        0.0061429809       -0.0048293174
Ti        -0.0006313527        0.0042188174       -0.0063548231
Ti         0.0003521198        0.0070935322        0.0062140042
Ti        -0.0050271793       -0.0085028131       -0.0025279592
Ti        -0.0010291686       -0.0015464296       -0.0036267383
Ti        -0.0073395285       -0.0000238147        0.0022751135
Ti         0.0018330521        0.0011091129       -0.0036123714
Ti         0.0046003035       -0.0039826435       -0.0038279690
Ti         0.0029265484        0.0068879499        0.0150929344
Ti        -0.0103276341        0.0078811411        0.0022131008
Ti        -0.0022523478        0.0142445444       -0.0103959015
Ti         0.0004118989        0.0036288562       -0.0107604303
Ti        -0.0017385963        0.0053805794       -0.0055384379
Ti         0.0092825699        0.0047345714        0.0028944287
Ti         0.0010124973       -0.0031814317       -0.0112259546
Ti        -0.0039996807        0.0073001976       -0.0112756537
Ti        -0.0050322884       -0.0096119242       -0.0108075569
Ti         0.0041082769       -0.0014344679        0.0042753058
Ti        -0.0078885260        0.0086957516       -0.0012800634
Ti        -0.0059851366       -0.0023317134        0.0065028746
Ti        -0.0070655005       -0.0024617696        0.0041592669
Ti         0.0011553929        0.0059564345       -0.0017500571
Ti         0.0001805863        0.0092545634        0.0065150509
Ti         0.0061463463        0.0050949375        0.0063908978
Ti        -0.0011406375        0.0167368597       -0.0038281506
Ti         0.0014834845       -0.0003252424        0.0025838774
Ti        -0.0064927900       -0.0019471536        0.0061394876
Ti         0.0119802775       -0.0006055627       -0.0089691754
Ti        -0.0052349251        0.0112436469       -0.0053517428
Ti         0.0073978445       -0.0037355736       -0.0042302801
Ti         0.0146885377       -0.0067648657       -0.0096350644
Ti         0.0013594911        0.0006928449        0.0066002017
Ti        -0.0021346953        0.0002166179        0.0033612055
Ti        -0.0066807436        0.0061862599       -0.0074429022
Ti        -0.0036553985        0.0096244155       -0.0024601573
Ti        -0.0094676514        0.0007654136        0.0027233254
Ti         0.0049379372        0.0076141115        0.0056804162
Ti         0.0100738358       -0.0009958676        0.0030739615
Ti        -0.0033209354        0.0036059557        0.0029880749
Ti        -0.0012800004       -0.0041986614       -0.0115062202
Ti         0.0000904631       -0.0004221725       -0.0024178710
Ti         0.0111380506        0.0025855283       -0.0070527946
Ti         0.0013821218        0.0129161847       -0.0010645665
Ti        -0.0022473299        0.0066641421        0.0159622990
Ti        -0.0075550193        0.0041849649        0.0030270498
Ti        -0.0077011565        0.0044867667        0.0061365687
Ti        -0.0029434550       -0.0055474752       -0.0009910976
Ti         0.0074408845        0.0020516219       -0.0051936520
Ti         0.0057640828       -0.0082027309       -0.0017052661
Ti        -0.0032193290       -0.0033844152        0.0035871105
Ti         0.0067812763        0.0079020796       -0.0045210481
Ti        -0.0076166944        0.0004417732       -0.0033266230
Ti         0.0088017771       -0.0103930332       -0.0001853496
Ti         0.0035987381        0.0056370321        0.0043352703
Ti        -0.0039296931       -0.0036116562        0.0051303800
Ti        -0.0024135910       -0.0022251218        0.0008743723
Ti        -0.0037880493       -0.0095324690        0.0003181002
Ti         0.0048896071        0.0026773930        0.0053382104
Ti        -0.0090149754        0.0064794181        0.0007753293
O        -0.0012193529        0.0117502398       -0.0007515057
O         0.0016158339        0.0011352516        0.0057149225
O         0.0027838833       -0.0032370039        0.0067034215
O         0.0074493408        0.0012745179        0.0005216590
O        -0.0013418555       -0.0035145965       -0.0044501891
O         0.0001657392       -0.0073172395        0.0039330789
O         0.0020684009       -0.0052654604        0.0000831643
O         0.0076297881       -0.0011962649       -0.0018483085
O        -0.0019862592       -0.0054517849       -0.0038899854
O        -0.0022135225       -0.0120075552       -0.0000324216
O        -0.0057382232       -0.0007492151        0.0089039349
O        -0.0040328817       -0.0025892759       -0.0016474402
O        -0.0017081659        0.0007746973        0.0060641879
O        -0.0006145206       -0.0080346920       -0.0025023018
O         0.0051104922       -0.0000101650       -0.0003491366
O         0.0013000123       -0.0029984473        0.0017488696
O         0.0036059393       -0.0047547544        0.0003072899
O         0.0046453545       -0.0021085854       -0.0050108180
O        -0.0013779022        0.0046809268        0.0001745980
O         0.0075697229        0.0043384311        0.0075898705
O         0.0001251479        0.0052892260        0.0085389793
O        -0.0025153874       -0.0065958295        0.0060935657
O        -0.0012636704       -0.0042657818       -0.0001021106
O        -0.0001253595        0.0072072842        0.0011468734
O        -0.0039194656       -0.0025502995        0.0045372759
O        -0.0030825457        0.0023041431        0.0072377596
O         0.0066384823       -0.0023741195        0.0003052320
O         0.0019524371       -0.0010435612        0.0000975290
O         0.0009169272        0.0041715626       -0.0074748138
O        -0.0066319841       -0.0004079697       -0.0010293180
O         0.0031534390       -0.0017206806       -0.0075699081
O         0.0013813632        0.0009781219       -0.0053045643
O         0.0010294837       -0.0145257197       -0.0010774283
O         0.0004161574        0.0029926078       -0.0025039706
O         0.0087866443       -0.0000537075       -0.0041688187
O        -0.0009140427       -0.0004838977        0.0019855899
O         0.0015785698       -0.0023136788        0.0022595840
O        -0.0003771518        0.0011162657        0.0049519430
O        -0.0091787080       -0.0004752371        0.0001560763
O        -0.0066446040        0.0001992748        0.0038869631
O        -0.0035984241       -0.0086776892        0.0075032530
O        -0.0037440466       -0.0030003195       -0.0037009356
O         0.0012858624        0.0054457680        0.0010146395
O        -0.0003054964       -0.0146334350        0.0021582155
O        -0.0041541196        0.0023060486       -0.0029756984
O        -0.0017186736       -0.0015688330        0.0000781284
O        -0.0023614839       -0.0009622368       -0.0060723974
O         0.0102245468       -0.0017750962        0.0019002420
O        -0.0039511009       -0.0151709323       -0.0048929599
O         0.0040494577       -0.0045864284       -0.0076678658
O         0.0028920332       -0.0006167672       -0.0054806513
O         0.0020566699       -0.0026901105       -0.0017203693
O         0.0015442619       -0.0157973400       -0.0007746340
O         0.0017811425       -0.0001702253       -0.0040229598
O        -0.0096961882       -0.0024482683        0.0031776726
O        -0.0046234793       -0.0003938556        0.0066128155
O         0.0026942173        0.0038762289        0.0041223639
O        -0.0013994538       -0.0000754492        0.0026223041
O         0.0051635759       -0.0046743443        0.0061454975
O        -0.0067402780       -0.0028745064       -0.0000355756
O         0.0024047271       -0.0027772241       -0.0037226448
O        -0.0048513375        0.0074946737       -0.0042721449
O        -0.0113041920       -0.0056552332        0.0044439534
O        -0.0080134572       -0.0036363400        0.0022208494
O        -0.0037285288        0.0032663792        0.0068248429
O         0.0063016703        0.0039780603       -0.0005652631
O        -0.0087444801        0.0017537067        0.0045521684
O         0.0025185110       -0.0003817403        0.0000683713
O        -0.0000640495       -0.0097343391        0.0032993345
O        -0.0038944070        0.0056809943       -0.0050596012
O         0.0043969055        0.0007615412       -0.0027086154
O        -0.0082337248       -0.0004551469        0.0036431721
O         0.0046777720       -0.0045054211        0.0014548521
O         0.0039349619        0.0033421441       -0.0033415299
O        -0.0061740516        0.0030694414       -0.0001815977
O         0.0009920080        0.0031628293        0.0047505691
O        -0.0027655944       -0.0089921254        0.0064850075
O        -0.0001722010       -0.0026194477        0.0029244096
O         0.0094302519       -0.0033213987        0.0001863444
O        -0.0079395370       -0.0017738433       -0.0014516005
O         0.0022083136       -0.0003355425        0.0028870055
O        -0.0017073265       -0.0102293351        0.0039324398
O        -0.0040298981        0.0026305558        0.0058331493
O        -0.0043655606        0.0003740255        0.0005356210
O         0.0016102011       -0.0004889533       -0.0191030959
O         0.0018066453       -0.0011853608        0.0033157108
O         0.0036478604        0.0028947873       -0.0027016610
O         0.0108784340        0.0000756695        0.0041038192
O        -0.0007967611        0.0055012347       -0.0050885031
O         0.0006357838        0.0009481204        0.0048335194
O        -0.0009122481        0.0046441949        0.0008019575
O         0.0004890514       -0.0113247761        0.0020328133
O         0.0021755777       -0.0028793766        0.0019064997
O         0.0072532550        0.0038923229       -0.0011322294
O         0.0026995379        0.0026407737        0.0014322133
O         0.0028483128       -0.0035166133       -0.0058961059
O        -0.0005870442        0.0107134394       -0.0052319760
O         0.0039998676       -0.0000203998        0.0017769093
O         0.0076065868        0.0012515835       -0.0071670712
O         0.0006935619        0.0008850936       -0.0021521867
O         0.0008961748       -0.0057830257       -0.0025666948
O         0.0000490459       -0.0063115580       -0.0038859876
O         0.0089565822       -0.0028115771        0.0055778979
O         0.0018551089       -0.0031270805        0.0006067421
O        -0.0006249318       -0.0034601505       -0.0008612610
O        -0.0028175002       -0.0074228813       -0.0012053472
O        -0.0029605468        0.0052551478        0.0034825566
O        -0.0039619140       -0.0010362872        0.0023003510
O         0.0036984662       -0.0008447332        0.0035948307
O        -0.0002301070       -0.0007678565       -0.0015382476
O         0.0002207509        0.0014547164       -0.0011519656
O         0.0137811255       -0.0042783059       -0.0036334687
O        -0.0001783672        0.0033119191        0.0042495172
O        -0.0034619966       -0.0022964869        0.0013050782
O         0.0035470421       -0.0001126810       -0.0003347691
O        -0.0062222313        0.0039987402        0.0064967571
O        -0.0010664010        0.0064578037        0.0018566035
O        -0.0042332809        0.0035607473       -0.0021815789
O         0.0028433368        0.0008375424       -0.0068162974
O        -0.0037505039        0.0102306461        0.0007394287
O        -0.0038585146        0.0028747858        0.0006220413
O        -0.0002810846       -0.0088451201       -0.0062136586
O         0.0101686692        0.0038270144        0.0012997960
O        -0.0013172269        0.0017327077        0.0015965327
O         0.0037137727        0.0000674049       -0.0034806072
O         0.0002210627       -0.0004299844        0.0011023193
O        -0.0081320601        0.0002516259       -0.0026922767
O         0.0001125135       -0.0003411357        0.0032414229
     192
 i =        3, E =     -5783.0900216760
Ti        -0.0022715992        0.0008080697        0.0025421027
Ti         0.0036148185       -0.0014933995       -0.0024117176
Ti        -0.0031434529       -0.0042412946       -0.0065361162
Ti         0.0003762745        0.0115636304        0.0009253511
Ti         0.0035762209        0.0014695508        0.0000215014
Ti        -0.0049715605        0.0039078115       -0.0038414646
Ti        -0.0032141473        0.0008425525       -0.0021509021
Ti         0.0001253849        0.0009810590        0.0035174160
Ti        -0.0042353587       -0.0029951901       -0.0014308480
Ti         0.0014753450       -0.0035581994       -0.0024363286
Ti        -0.0065270251       -0.0018778486       -0.0002889828
Ti         0.0018850323        0.0003930208       -0.0005860727
Ti         0.0056821784       -0.0057990473       -0.0035281967
Ti         0.0007894272        0.0063460835        0.0084549301
Ti        -0.0044421748        0.0014006322       -0.0017423206
Ti        -0.0013877185        0.0113452484       -0.0042405174
Ti        -0.0003333445        0.0016825417       -0.0044312737
Ti         0.0013750352        0.0055252243        0.0006997473
Ti         0.0084549657        0.0071327971       -0.0011782391
Ti         0.0024280788       -0.0050709035       -0.0057485579
Ti         0.0017476211       -0.0000906711       -0.0066713562
Ti        -0.0044260827       -0.0073541587       -0.0028980590
Ti         0.0044012700        0.0025627531        0.0053345246
Ti        -0.0083069526        0.0069029805       -0.0022379233
Ti        -0.0041810148       -0.0009017349        0.0046969087
Ti        -0.0075921319        0.0001553206       -0.0000796558
Ti         0.0044526249        0.0033760738       -0.0011061898
Ti        -0.0012715993        0.0045428479        0.0007349684
Ti         0.0020207655        0.0069814181        0.0029925534
Ti         0.0026085429        0.0084377291        0.0043833510
Ti        -0.0012122753        0.0026064698        0.0026763840
Ti        -0.0051632340       -0.0001095448        0.0028151025
Ti         0.0080309527        0.0006679324       -0.0040857296
Ti        -0.0046216985        0.0035211928       -0.0029154467
Ti         0.0035028711       -0.0017094521       -0.0063152613
Ti         0.0144196930       -0.0058742910       -0.0058045784
Ti        -0.0001754964       -0.0001033847        0.0028362301
Ti        -0.0033588607       -0.0001301240        0.0048865773
Ti        -0.0054766837        0.0040790735       -0.0038562400
Ti        -0.0023287176        0.0104639989       -0.0021209612
Ti        -0.0080285997        0.0020212688        0.0053602598
Ti         0.0035488966        0.0066022517        0.0005267853
Ti         0.0054032145        0.0017669435       -0.0049160534
Ti        -0.0011979946        0.0054649809        0.0014876070
Ti         0.0005634771       -0.0039711064       -0.0059011284
Ti        -0.0043669014       -0.0018174853       -0.0018514850
Ti         0.0081129297        0.0024085277       -0.0047029539
Ti         0.0029269710        0.0076377224       -0.0008247904
Ti        -0.0015539599        0.0072526809        0.0061916269
Ti        -0.0023700619        0.0029699296       -0.0006002994
Ti        -0.0039420170        0.0067160423        0.0036707262
Ti        -0.0053445262       -0.0049002445        0.0021057739
Ti         0.0023726158        0.0012282102       -0.0020959783
Ti         0.0019503268       -0.0034907151       -0.0012347316
Ti        -0.0002268609       -0.0028872716        0.0028626826
Ti         0.0024968912        0.0044834795       -0.0011536619
Ti        -0.0023913398        0.0011427050       -0.0016474731
Ti         0.0062655390       -0.0119114129        0.0001818259
Ti         0.0021194870        0.0050942802        0.0041708876
Ti        -0.0040634125       -0.0018053145        0.0023513775
Ti        -0.0035800032        0.0012205429        0.0041430303
Ti        -0.0022854081       -0.0095886663        0.0010740058
Ti         0.0037034757        0.0009146675        0.0022611170
Ti        -0.0045916929        0.0049919942       -0.0009554031
O        -0.0007628972        0.0028921188        0.0021062002
O         0.0029394477       -0.0026243520        0.0044414041
O        -0.0045828891       -0.0000853400        0.0038748228
O         0.0018723471        0.0020009536        0.0013485352
O         0.0020442666        0.0002622308       -0.0027957960
O         0.0009972177       -0.0037899187        0.0026515113
O         0.0028329830       -0.0018923984        0.0034676492
O         0.0047241090        0.0006450653       -0.0006351325
O         0.0028698552       -0.0056472020       -0.0011942372
O        -0.0028725662       -0.0041499876       -0.0008852149
O         0.0017214828        0.0000949952        0.0030779807
O         0.0031527699       -0.0010421619       -0.0009252360
O        -0.0039838134       -0.0012120335        0.0029958757
O        -0.0018663320       -0.0026151555       -0.0025809434
O         0.0035744853       -0.0043051831        0.0009923948
O         0.0033766239       -0.0011225251        0.0013198053
O         0.0007830162        0.0016065244       -0.0006690144
O         0.0037445312       -0.0008110447       -0.0023806808
O        -0.0029116641        0.0007032884        0.0009460884
O         0.0043733416        0.0035043948        0.0028373030
O         0.0012772771        0.0011336026        0.0033453067
O         0.0036111481       -0.0021091336        0.0045794662