     192
 i =        1, E =     -5782.9609927385
Ti        -0.0630750712        0.0926367044        0.0660739172
Ti         1.8669491673        1.9239161659        4.8994624216
Ti         0.0470947313        2.0302908983        2.5309871965
Ti         1.8644188706       -0.0469207065        7.1723498578
Ti        -0.0340953783        3.8296486403       -0.0533825697
Ti         1.9499941251       13.1923335797        4.8338962682
Ti        11.2880257372        1.9809393189        2.4510378176
Ti         5.6075409164       -0.0902570294        7.2231282213
Ti         1.9056182676        3.8180023691        7.2357792498
Ti         0.0246411585       13.3478116246        2.4742170407
Ti         5.6781439716        1.8365198029        4.8275829412
Ti        11.3031773300        0.1156599828       -0.0452224777
Ti         3.6766506184        0.0972777574        0.0484738381
Ti        13.1229883320        1.7697877357        4.7042613895
Ti        13.2671527013       -0.0450218314        7.1548082421
Ti         3.7505510961        1.8025147535        2.5224378601
Ti         1.9718272386        5.6388052429        4.8508405200
Ti         0.0004708179       11.5667260597        0.0049018223
Ti        -0.0226894306        5.7225557039        2.4870970541
Ti         1.8978767003       11.3174735376        7.3612478485
Ti         0.0712340973        7.5037923760        0.0531868201
Ti         2.0393173740        9.5182349314        4.9044510312
Ti         7.4986722174        1.9573551154        2.3506813890
Ti         9.4696217510       -0.1314980659        7.2260793262
Ti         1.9465608036        7.5792615328        7.1610173722
Ti         0.1327083139        9.5810372126        2.4753245234
Ti         9.3283554255        1.8086402042        4.7681475478
Ti         7.4642220179       -0.0615162252       -0.0797190517
Ti         3.7291690724        3.7833687696       -0.0066789176
Ti        13.2377441223       13.1245491747        4.7425521918
Ti        11.3744399837        5.7263759463        2.3767499660
Ti         5.6796640788       11.3253974719        7.1522952008
Ti        13.1724378863        3.6800699173        7.2404018185
Ti         3.7724076520       13.1621519435        2.4440329738
Ti         5.6802284315        5.7198097557        4.8434689562
Ti        11.2220557094       11.3901863297        0.1084860874
Ti        11.2849691008       13.3335899628        2.3542071055
Ti         5.6595847997        3.7269157143        7.1287879728
Ti         3.8837247881       11.4218942604        0.0419521822
Ti        13.2881389901        5.5836759490        4.9036007558
Ti         5.7979654341       13.2089166746        4.8103054639
Ti        11.2675860215        3.7899544333       -0.0769331329
Ti        13.0949824389       11.3813946690        7.2646275778
Ti         3.7912738741        5.6083908097        2.3939216065
Ti         3.7990597901        7.5571499869        0.0452997909
Ti        13.3040140571        9.4212370045        4.8373740931
Ti         7.5191946879        5.6774979939        2.3893050000
Ti         9.4266221219       11.1416601965        7.1726487074
Ti        13.3048424406        7.5416787501        7.2316803808
Ti         3.8826561470        9.4422955814        2.3388113950
Ti         9.5214264998        5.5611920219        4.7065238804
Ti         7.5324510647       11.3430581090        0.0708944110
Ti        11.4050712475        9.4480244681        2.4127480030
Ti         5.6603818168        7.6067937454        7.2012960812
Ti         5.7794823197        9.4228606247        4.7420385098
Ti        11.3211281887        7.5747424490        0.0059189595
Ti         9.4278431399        3.6451447177        7.1662572371
Ti         7.5400793323       13.3085077294        2.4059999711
Ti         7.4632782074        3.7979562995       -0.0639404113
Ti         9.5126574255       13.2421613129        4.7815901958
Ti         7.5983507965        7.5331694151       -0.0562620430
Ti         9.5312781352        9.3933087186        4.7597399296
Ti         7.6380634714        9.4166267439        2.3229896534
Ti         9.5158227338        7.3578663844        7.1444347339
O         0.0556177257        0.0831325914        2.0922105819
O         1.6655116331        1.9357898283        6.7385278169
O        -0.0702960119        2.0005629887        4.4151395865
O         1.7983379157        0.1490242909        9.2364301344
O         1.8074264935       -0.0171328607        5.2599820412
O        -0.1518004752        2.0051468800        0.4921598172
O         1.8670083036        2.1780023205        2.8323704342
O        -0.0700244200       -0.0503096216        7.6228304161
O        -0.0293508782        3.9091098375        2.0823082893
O         1.9952429825       13.2696081621        6.8245919146
O        11.2871350816        1.8272137467        4.3154465870
O         5.6315905276       -0.0212959745        9.2674131988
O         2.1131004714        3.7578791202        5.1787646992
O         0.0539674031       13.3683126081        0.4363417707
O         5.6316850949        1.8509972140        2.8363944818
O        11.2856759653        0.0679917714        7.5622553253
O         3.7118830500        0.1192212934        7.6900678080
O        13.1896674260        1.8719849562        2.8303373056
O        13.1744231469       -0.1074917929        9.2176363517
O         3.7110558064        1.6474630908        4.3784393752
O         1.9082596007        5.6232387345        6.7421340348
O         0.0599204626       11.4557669258        1.9204586119
O         0.0844110479        5.7226205468        0.4651566021
O         1.9154757252       11.3170728585        5.2348406523
O         0.1224175435        7.7216388898        1.9537731670
O         2.1616335873        9.4637347175        6.7785000893
O         7.4570613523        1.8624573248        4.3603035622
O         9.4159653699        0.0371341125        9.2008447949
O         1.8219032492        7.5679341358        5.2742974643
O         0.1124724798        9.5672504006        0.2729852180
O         9.3698860553        2.0418162290        2.8404111113
O         7.4838599627       -0.1607284658        7.6992427450
O         3.7496681011        0.0571917833        2.0373814327
O        13.2181815592        1.8491939566        6.7828397663
O         0.0052194673        5.6055115891        4.4889221689
O         1.9282496200       11.3545326662        9.2668110917
O        13.1716457785       -0.0304732962        5.1316263744
O         3.7069775789        1.9544585104        0.4337992826
O         1.9458120498        5.8044273075        2.9112131139
O         0.0963870591       11.4258215081        7.5671858179
O        11.3476926190        2.0060369284        0.2862666291
O         5.8159881999       -0.0856236417        5.2754980462
O         5.5643764188        1.8280961759        6.7851405167
O        11.2695201035        0.1388174546        1.8950858728
O         1.9063133651        3.8352763936        9.2052162894
O        -0.0188587541       13.1538489577        4.4556693010
O         0.0224811076        3.8019000105        7.6769666659
O         1.8856729190       13.2361283414        2.8666866930
O         3.9678069956        3.8370548520        2.0690575462
O        13.1052305883       13.2705822501        6.7320180134
O        11.3725039028        5.6625750988        4.3863838310
O         5.6905839277       11.4718094755        9.2263047791
O        13.1778291005        3.8029038921        5.2190468569
O         3.6383745029       13.3095271843        0.5073449854
O         5.7384427526        5.9138307731        2.7383862854
O        11.3038265463       11.3382447146        7.6543669923
O        11.2509462233       13.2707274216        0.4094580226
O         5.4926422597        3.7201624641        5.1848933264
O         3.7883606131       11.3694240360        7.6795120010
O        13.2777346676        5.9254917845        2.8739172959
O         5.5160127533       13.1995252266        6.7821753920
O        11.5441730771        3.8319525479        1.9193542380
O        13.2338369188       11.4077038461        9.2096980888
O         3.8642850325        5.7141665849        4.4072326939
O         5.7625100883        5.6339885538        6.7345241557
O        11.1217735172       11.4587838153        2.0019571188
O        13.2082733597        3.9107955632        9.1361905881
O         3.7981743616       13.2149069226        4.3902432439
O        11.3586356807        5.7371703466        0.4105639629
O         5.7868739044       11.3033333251        5.2359916613
O         3.7457133957        3.7228455451        7.6480698531
O        13.2123309617       13.2143557153        2.7149010524
O        13.0516918556       11.4088057640        5.1528204272
O         3.7136600721        5.6750705958        0.4289003327
O         5.6956271267       13.1671450237        2.8680004072
O        11.2946354394        3.5629713739        7.5569431630
O         3.9637719858       11.4058630283        1.9661698019
O        13.2136698826        5.6415556708        6.9008293038
O        11.2884571983       13.3506249624        4.3228066211
O         5.6638077832        3.8117968018        9.1418229780
O         3.7865756420        7.6345266246        1.9264340321
O        13.3107923896        9.5851988900        6.7528984277
O         7.5733469839        5.5276326845        4.3208546477
O         9.4244663583       11.3240192201        9.2235753165
O        13.2634118009        7.5873366278        5.4198866398
O         3.8111221397        9.5219792847        0.3599141328
O         9.5540633442        5.5801220081        2.7890430472
O         7.5231182225       11.3482075593        7.5744880841
O        11.3457740872        9.4924731261        0.4080047802
O         5.7308725061        7.5681854792        5.1628638551
O         5.5465587064        9.4184311410        6.7580106460
O        11.2242723036        7.6054013262        2.0189421163
O         9.4346083301        3.9492954752        9.1480985233
O         7.5917644244       13.0438746682        4.4523647720
O         7.5045383408        3.6453212665        7.5499957738
O         9.4298911269       13.4693633902        2.8562867855
O         7.4429158757       -0.0374676625        2.0375522793
O         9.2133524789        1.8077176180        6.7281739490
O         0.0796836679        9.3693168027        4.4344983082
O         1.9273472852        7.5764450590        9.2018588977
O         9.3114334878       -0.0326627332        5.1939370029
O         7.6355225518        1.9045124065        0.4388183812
O         1.9641059636        9.6995838894        2.7723190739
O         0.0421631858        7.5682724454        7.6169796278
O         7.5245853559        3.7976774500        1.9492826961
O         9.5033562517       13.2079115117        6.7437422022
O        11.4424684085        9.2291712773        4.3780555192
O         5.6687377107        7.6983846137        9.1262669792
O         9.4813752409        3.6886793941        5.1825427337
O         7.5680005058       13.2196266322        0.4179744376
O         5.7399861007        9.4006929944        2.7114985823
O        11.3035554217        7.6446307979        7.5952203608
O         3.7906678339        7.3641665499        7.5999632354
O        13.3244372413        9.6163952627        2.8078147411
O        13.2647356063        7.6757731692        9.3272064716
O         3.8516708872        9.4262242012        4.2979419248
O         9.6100761422        5.5295232300        6.7550168587
O         7.6431374286       11.3272653867        1.9614882808
O         7.3427845264        5.6952586520        0.3700430685
O         9.5557264074       11.2283832894        5.1965834185
O         7.8615110455        7.5896971677        1.9245758790
O         9.4486390146        9.4158292299        6.8105173685
O         7.5603297201        9.3777086197        4.3261341545
O         9.4710171749        7.4386559671        9.2196626002
O         9.3541035345        7.4828082972        5.2462117176
O         7.5173458066        9.4668726818        0.3624081275
O         9.5712069418        9.5101843391        2.8706666593
O         7.5969042914        7.5408451064        7.5878663354
     192
 i =        2, E =     -5783.0531052584
Ti        -0.0592720566        0.1156096405        0.0328146632
Ti         1.8564136378        1.9284561376        4.8828034456
Ti         0.0408499534        2.0110709160        2.4894053762
Ti         1.8458070598       -0.0661634710        7.1911604822
Ti        -0.0574394020        3.8299068795       -0.0342372998
Ti         1.9530661712       13.2065981928        4.8395982768
Ti        11.3007418696        1.9582876094        2.4341509731
Ti         5.6004791571       -0.0750568532        7.2139126420
Ti         1.9052666302        3.8053637982        7.2470091724
Ti         0.0083885026       13.3339023466        2.4601979916
Ti         5.6808527108        1.8517734760        4.8127834293
Ti        11.2924831970        0.0933779232       -0.0331987513
Ti         3.6599865904        0.0817657182        0.0342304872
Ti        13.1639609993        1.7916549900        4.7346752406
Ti        13.2655469515       -0.0404404070        7.1775032120
Ti         3.7637743195        1.8316316469        2.5086114780
Ti         1.9636655737        5.6577623358        4.8326372446
Ti        -0.0006231284       11.5557394470       -0.0022602340
Ti        -0.0158638637        5.7106721505        2.4789391600
Ti         1.8783448967       11.3443581431        7.3314565403
Ti         0.0358643076        7.4964915421        0.0330727277
Ti         2.0231687052        9.5197899545        4.8642408823
Ti         7.5007694057        1.9552423598        2.3323359944
Ti         9.4832320237       -0.1124763856        7.2269666890
Ti         1.9385870357        7.5718247401        7.1748527605
Ti         0.1050040012        9.5525388171        2.4855164938
Ti         9.3504969773        1.8212209913        4.7910798090
Ti         7.4668844025       -0.0336397752       -0.0654059523
Ti         3.7394808758        3.7710217337        0.0028110027
Ti        13.2324341100       13.1162395484        4.7778107532
Ti        11.3604329340        5.7141413503        2.3858750547
Ti         5.6737172600       11.3188877814        7.1735432642
Ti        13.1642654481        3.7049615577        7.2314727724
Ti         3.7819257913       13.1930242276        2.4440139959
Ti         5.6984038449        5.6985934250        4.8356549093
Ti        11.2238193348       11.3870209010        0.0821113825
Ti        11.3050787909       13.3130368627        2.3470251034
Ti         5.6662621641        3.7260853710        7.1410549571
Ti         3.8678286163       11.3957100355        0.0219852807
Ti        13.2763723071        5.5921762563        4.8725928407
Ti         5.7720279642       13.2042950326        4.8059229684
Ti        11.2615160282        3.7977822186       -0.0443460060
Ti        13.1238303620       11.3530606624        7.2624345813
Ti         3.8025081776        5.6310249015        2.3930459471
Ti         3.7914605009        7.5814470498        0.0323324368
Ti        13.2864366720        9.4303423302        4.8400129166
Ti         7.4930485201        5.6846061437        2.4119897082
Ti         9.4102359196       11.1771513454        7.1696541826
Ti        13.2977638084        7.5276553468        7.1962100063
Ti         3.8577787340        9.4338866663        2.3518478464
Ti         9.5192974014        5.5732100048        4.7253451356
Ti         7.5656405194       11.3536616545        0.0437832803
Ti        11.3959963547        9.4535581350        2.4348191694
Ti         5.6640507218        7.5822662720        7.2242898037
Ti         5.7699733399        9.4206139242        4.7576200061
Ti        11.3293221489        7.5860327801       -0.0002616351
Ti         9.4364747402        3.6635859779        7.1746412109
Ti         7.5408072108       13.3255167386        2.3894479372
Ti         7.4745832291        3.7976426482       -0.0584579394
Ti         9.4975998919       13.2363227350        4.7876028305
Ti         7.6105490758        7.5325787129       -0.0631473580
Ti         9.5282494883        9.4210870866        4.7775636713
Ti         7.6131954391        9.4154377262        2.3302049799
Ti         9.5180867281        7.3889097104        7.1524195645
O         0.0565338812        0.0645114974        2.0289619470
O         1.7571194935        1.9169663802        6.7673539749
O        -0.0220576890        1.9785993844        4.3934598927
O         1.7970626066        0.1253486807        9.2112075795
O         1.8145495856       -0.0109532626        5.2655551722
O        -0.1182519689        2.0077954356        0.4510963987
O         1.8686744238        2.0937125859        2.8096020172
O        -0.0520013378       -0.0547958462        7.6397117968
O        -0.0613475069        3.8915164409        2.0707556221
O         1.9874378167       13.2438344629        6.8354414391
O        11.2939793531        1.8437123872        4.3434293211
O         5.6037658502        0.0176421202        9.2504644557
O         2.0670226472        3.7793574527        5.1922547552
O         0.0478407216       13.3710428554        0.4311783417
O         5.6342086850        1.9188754668        2.8199011200
O        11.3099837330        0.0768261296        7.5701584144
O         3.7018993986        0.0857570085        7.6671696205
O        13.1905100198        1.8965805412        2.8362855837
O        13.1860453792       -0.0309303536        9.1886562520
O         3.7213168356        1.6756117395        4.3990637468
O         1.8712091996        5.6373718852        6.7709128940
O         0.0230568425       11.4287182825        1.9179921560
O         0.0377072284        5.7107216998        0.4585702829
O         1.8939094982       11.3354056791        5.2402331117
O         0.1262932783        7.6964035082        1.9429221543
O         2.0546081492        9.4674622210        6.7944834291
O         7.4970787245        1.9139722233        4.3811446755
O         9.4183947846        0.0160039786        9.1739887593
O         1.8936532267        7.5666436589        5.2674546054
O         0.0849332054        9.5415164675        0.2720730522
O         9.3823062076        1.9837125300        2.8190591741
O         7.4780434074       -0.1325536223        7.6701304273
O         3.7347545672        0.0625001134        2.0332106794
O        13.2722778411        1.8663419144        6.7902703268
O         0.0127053673        5.5948198195        4.4648963356
O         1.8919543305       11.3511026790        9.2489880276
O        13.2301712448       -0.0052991283        5.1699481354
O         3.7141396984        1.9343178431        0.4421759861
O         1.9421943794        5.7522962988        2.8674048978
O         0.0457464144       11.4319181791        7.5952270543
O        11.3232082998        1.9828996947        0.3118140042
O         5.7887769672       -0.0567107196        5.2544451888
O         5.6315958859        1.8255143776        6.7818152323
O        11.2983106261        0.1288132120        1.9195663064
O         1.8851926280        3.8176894082        9.2366615864
O        -0.0103179962       13.2064099599        4.4146241810
O         0.0013135006        3.7835909308        7.6754735036
O         1.8818961969       13.2386318926        2.8626114125
O         3.9010730259        3.8474133821        2.0589532552
O        13.1562922979       13.2348956591        6.7830671273
O        11.3677150406        5.6668070745        4.4054158123
O         5.6978845933       11.4574064147        9.2269538232
O        13.1570106635        3.8038406234        5.2206958701
O         3.6483241424       13.2941520347        0.4741330985
O         5.7098782971        5.8743416249        2.7643378759
O        11.3192179581       11.3347218152        7.6138318034
O        11.2736768506       13.2735218536        0.3870018035
O         5.5843852286        3.7221315394        5.1855978458
O         3.7907126171       11.3760376998        7.6649777768
O        13.2870557961        5.9041054578        2.8667374505
O         5.5204741578       13.2043023092        6.8099506981
O        11.4792582783        3.8067164897        1.9620090624
O        13.2540819840       11.4310998632        9.2004917947
O         3.8551211388        5.7221199803        4.3998528998
O         5.7532611064        5.6325215232        6.7368474850
O        11.2131655828       11.4100265760        2.0079382835
O        13.2061263419        3.8917369155        9.1491249124
O         3.7839991442       13.2324824732        4.4166946905
O        11.4035861523        5.7426317821        0.4065112306
O         5.7412372280       11.2897093983        5.2464878585
O         3.7569067803        3.7233311296        7.6559844453
O        13.2312819547       13.2667733013        2.7739208630
O        13.0854498591       11.3464009248        5.1584545347
O         3.7412629610        5.6805294854        0.4223603988
O         5.6936359151       13.2322593812        2.8531938606
O        11.3024727321        3.5801981579        7.5777555245
O         3.9232023544       11.3991891108        1.9873619062
O        13.2208625296        5.6546927766        6.8387818679
O        11.3060615574       13.3112600477        4.3422462995
O         5.6583312702        3.7839352409        9.1603321388
O         3.7555852710        7.6099504120        1.9431455827
O        13.3114235822        9.5426475136        6.7827123543
O         7.5839713906        5.5186239528        4.3334241483
O         9.4332084436       11.3107555243        9.1749061891
O        13.2968088425        7.5751154088        5.3410865354
O         3.7968926894        9.5084963396        0.3776650663
O         9.5058798243        5.5781026378        2.7947405930
O         7.5187130732       11.3226457556        7.5637472211
O        11.3616424907        9.4839361865        0.4674144260
O         5.7458413321        7.5508774271        5.1778453418
O         5.5966283614        9.4041179631        6.7715693927
O        11.2986574107        7.6166943005        2.0023946764
O         9.4156405784        3.9312605882        9.1509557042
O         7.5735192438       13.0859312994        4.4090851881
O         7.5210274356        3.6930423467        7.5726064447
O         9.4261713012       13.3788848892        2.8217163234
O         7.4803338410        0.0038079984        2.0357413628
O         9.2806513634        1.8228155375        6.7613682045
O         0.0532009514        9.4343946758        4.4189383801
O         1.9081843855        7.6618231455        9.2137631932
O         9.3535330011       -0.0235202003        5.2034230332
O         7.5647881534        1.9136714133        0.4082851650
O         1.9364016705        9.6363859653        2.7658101068
O         0.0326587818        7.5858289949        7.6154701048
O         7.4789985788        3.8187289633        1.9478849552
O         9.4850565529       13.2152033121        6.7618919715
O        11.4126596138        9.2467424012        4.4041078608
O         5.6725409614        7.6528108480        9.1565076253
O         9.4563932505        3.7122734100        5.1937054078
O         7.5871959371       13.2534289179        0.4282780490
O         5.7304211054        9.4105176577        2.7493916588
O        11.3383600456        7.6272645892        7.6354528289
O         3.7831914695        7.3924039378        7.5970614708
O        13.2911242736        9.6025955221        2.8093328566
O        13.2656581913        7.6618198765        9.2330510050
O         3.8430345537        9.3933846141        4.3210189145
O         9.5414815082        5.5644075732        6.7653517337
O         7.6657025024       11.3303200928        1.9575725712
O         7.4123205802        5.6904176205        0.4011989657
O         9.5573375860       11.2542940777        5.2068947193
O         7.7923991672        7.5595112313        1.9444095972
O         9.4639854135        9.4093716957        6.8370408568
O         7.5815959826        9.3886927083        4.3446541701
O         9.4704782699        7.4963343072        9.1825588575
O         9.4009845965        7.4928502081        5.2304882694
O         7.5315851850        9.4539404669        0.3648122397
O         9.5276775755        9.5097802011        2.8640991649
O         7.5888595947        7.5161929608        7.5928674524
     192
 i =        3, E =     -5783.0900216760
Ti        -0.0488005249        0.1160444840        0.0177595598
Ti         1.8638250794        1.9211650953        4.8716138382
Ti         0.0365549111        2.0067469075        2.4709421140
Ti         1.8508932300       -0.0542524285        7.2006669385
Ti        -0.0669732256        3.8191488977       -0.0302767246
Ti         1.9502001454       13.2227193247        4.8286110346
Ti        11.3233554055        1.9449298529        2.4326042751
Ti         5.6057204217       -0.0524867760        7.2112401589
Ti         1.9010610324        3.7949898476        7.2474020366
Ti         0.0050085644       13.3340522539        2.4455836647
Ti         5.6863528778        1.8597221823        4.8138866155
Ti        11.2856197615        0.0822039619       -0.0278179952
Ti         3.6694292375        0.0798776552        0.0272111682
Ti        13.1818425467        1.8129506534        4.7653214287
Ti        13.2501645977       -0.0293758052        7.1964335227
Ti         3.7721500616        1.8403627744        2.4845300921
Ti         1.9586773561        5.6670460800        4.8266271507
Ti        -0.0142710172       11.5436835660       -0.0106624332
Ti        -0.0096958514        5.7010662095        2.4712181673
Ti         1.8644516020       11.3523647947        7.2990684744
Ti         0.0160238625        7.5050056252        0.0094402697
Ti         2.0032330190        9.5192039632        4.8470008443
Ti         7.5159587712        1.9468947384        2.3336531293
Ti         9.4712177280       -0.0937584102        7.2183537894
Ti         1.9262072948        7.5672815630        7.1766918725
Ti         0.0852123820        9.5299623517        2.4860535678
Ti         9.3656710307        1.8368504989        4.7876152152
Ti         7.4666415966       -0.0095657908       -0.0565269264
Ti         3.7448911251        3.7754937730        0.0117747658
Ti        13.2348497347       13.1402635292        4.7820577292
Ti        11.3629983655        5.7079496665        2.3923101192
Ti         5.6688244729       11.3189500560        7.1895449388
Ti        13.1765338597        3.7205006327        7.2192199228
Ti         3.7795041448       13.2170983377        2.4229486849
Ti         5.7000561009        5.6814084577        4.8400174641
Ti        11.2395672461       11.3878572644        0.0560621170
Ti        11.3232547058       13.2980017818        2.3664220043
Ti         5.6654256255        3.7324468592        7.1575441219
Ti         3.8462592870       11.3895008503        0.0195514776
Ti        13.2712520955        5.5960668148        4.8509059307
Ti         5.7486696928       13.2037954927        4.7968633538
Ti        11.2677008129        3.7964560939       -0.0210597592
Ti        13.1621827198       11.3302679296        7.2721863605
Ti         3.7938451717        5.6309105971        2.3911080678
Ti         3.7794469902        7.5933491328        0.0155048769
Ti        13.2828797021        9.4372996937        4.8390343252
Ti         7.4985892813        5.6905762354        2.4069009827
Ti         9.4171853310       11.2081122378        7.1639400750
Ti        13.2967215667        7.5236163778        7.1830698194
Ti         3.8385331449        9.4326329356        2.3764654669
Ti         9.5018258518        5.5849088970        4.7431057648
Ti         7.5713005061       11.3480943579        0.0270876486
Ti        11.4026184023        9.4549806452        2.4262012996
Ti         5.6717840796        7.5619713832        7.2348237253
Ti         5.7583496972        9.4151833262        4.7761454123
Ti        11.3509631006        7.5909612109       -0.0137081019
Ti         9.4331350581        3.6857474541        7.1832228277
Ti         7.5474139088       13.3309925141        2.3799474976
Ti         7.4823048588        3.8047774027       -0.0493272592
Ti         9.4898185700       13.2303488281        4.7896688258
Ti         7.6115831203        7.5350138035       -0.0619985374
Ti         9.5189467780        9.4296374273        4.7749822654
Ti         7.6084642038        9.4333692410        2.3493360536
Ti         9.5117566178        7.4294798135        7.1624304588
O         0.0461790086        0.0758705592        2.0017707304
O         1.8008533810        1.9143046965        6.7804942447
O         0.0056060739        1.9508969655        4.3965514916
O         1.8153099978        0.1243763247        9.2068053032
O         1.8074262655       -0.0137485766        5.2632715803
O        -0.1091810761        1.9925916342        0.4403847343
O         1.8712231290        2.0285002499        2.7983337171
O        -0.0385327238       -0.0617446099        7.6317274724
O        -0.0896677547        3.8769473136        2.0486055068
O         1.9643596055       13.2318337397        6.8360347952
O        11.2925431313        1.8518385618        4.3718197507
O         5.5907855199        0.0144948302        9.2378753870
O         2.0365703008        3.7846871105        5.2098291448
O         0.0392538968       13.3561323947        0.4206459853
O         5.6448046996        1.9513036853        2.8149351323
O        11.3068710342        0.0597436292        7.5757186142
O         3.7125753397        0.0416172193        7.6616306538
O        13.2040811021        1.8905341885        2.8457951498
O        13.1915450805        0.0292160906        9.1806015739
O         3.7481309220        1.7238551692        4.4049192109
O         1.8573266766        5.6503529734        6.7984819875
O        -0.0165266440       11.4084999090        1.9248815715