 DBCSR| CPU Multiplication driver                                           XSMM (U)
 DBCSR| Multrec recursion limit                                              512 (U)
 DBCSR| Multiplication stack size                                           1000 (D)
 DBCSR| Maximum elements for images                                    UNLIMITED (U)
 DBCSR| Multiplicative factor virtual images                                   1 (U)
 DBCSR| Use multiplication densification                                       T (D)
 DBCSR| Multiplication size stacks                                             3 (U)
 DBCSR| Use memory pool for CPU allocation                                     F (U)
 DBCSR| Number of 3D layers                                               SINGLE (U)
 DBCSR| Use MPI memory allocation                                              F (U)
 DBCSR| Use RMA algorithm                                                      F (U)
 DBCSR| Use Communication thread                                               T (U)
 DBCSR| Communication thread load                                             87 (D)
 DBCSR| MPI: My process id                                                     0
 DBCSR| MPI: Number of processes                                             128
 DBCSR| OMP: Current number of threads                                         1
 DBCSR| OMP: Max number of threads                                             1
 DBCSR| Split modifier for TAS multiplication algorithm                  1.0E+00 (U)


  **** **** ******  **  PROGRAM STARTED AT               2025-06-17 07:50:05.618
 ***** ** ***  *** **   PROGRAM STARTED ON                             nid002524
 **    ****   ******    PROGRAM STARTED BY                                cahart
 ***** **    ** ** **   PROGRAM PROCESS ID                                259916
  **** **  *******  **  PROGRAM STARTED IN /mnt/lustre/a2fs-work2/work/e05/e05/c
                                           ahart/postdoc2/work/group/tio2/anatas
                                           e/cell-441/geo-opt/mp-390/neutral-fro
                                           m-hole/pbe-u-o/u-4.5

 CP2K| version string:                                       CP2K version 2024.3
 CP2K| source code revision number:                                  git:6712648
 CP2K| cp2kflags: omp libint fftw3 libxc libgrpp elpa parallel scalapack cosma x
 CP2K|            smm plumed2 spglib mkl sirius libvori libbqb libvdwxc hdf5
 CP2K| is freely available from                            https://www.cp2k.org/
 CP2K| Program compiled at                       Thu 12 Sep 2024 10:20:47 AM BST
 CP2K| Program compiled on                                                  ln04
 CP2K| Program compiled for                                                local
 CP2K| Data directory path    /mnt/lustre/a2fs-work1/work/y07/shared/apps/core/c
 CP2K| Input file name                                                 input.inp

 GLOBAL| Force Environment number                                              1
 GLOBAL| Basis set file name                                        BASIS_MOLOPT
 GLOBAL| Potential file name                                      GTH_POTENTIALS
 GLOBAL| MM Potential file name                                     MM_POTENTIAL
 GLOBAL| Coordinate file name                                         system.xyz
 GLOBAL| Method name                                                        CP2K
 GLOBAL| Project name                                                       tio2
 GLOBAL| Run type                                                         ENERGY
 GLOBAL| FFT library                                                       FFTW3
 GLOBAL| Diagonalization library                                            ELPA
 GLOBAL| DGEMM library                                                      BLAS
 GLOBAL| Minimum number of eigenvectors for ELPA usage                        16
 GLOBAL| Orthonormality check for eigenvectors                          DISABLED
 GLOBAL| Matrix multiplication library                                     COSMA
 GLOBAL| All-to-all communication in single precision                          F
 GLOBAL| FFTs using library dependent lengths                                  F
 GLOBAL| Grid backend                                                       AUTO
 GLOBAL| Global print level                                               MEDIUM
 GLOBAL| MPI I/O enabled                                                       T
 GLOBAL| Total number of message passing processes                           128
 GLOBAL| Number of threads for this process                                    1
 GLOBAL| This output is from process                                           0
 GLOBAL| Stack size for threads created by OpenMP (OMP_STACKSIZE)        default
 GLOBAL| CPU model name                          AMD EPYC 7742 64-Core Processor
 GLOBAL| CPUID                                                              1002

 MEMORY| system memory details [Kb]
 MEMORY|                        rank 0           min           max       average
 MEMORY| MemTotal            263341976     263341976     263341976     263341976
 MEMORY| MemFree             234455488     234455488     234455488     234455488
 MEMORY| Buffers                     0             0             0             0
 MEMORY| Cached                1726404       1726404       1728480       1726527
 MEMORY| Slab                  6034240       6034232       6034468       6034253
 MEMORY| SReclaimable           907580        907580        907604        907581
 MEMORY| MemLikelyFree       237089472     237089472     237091572     237089596


 *** Fundamental physical constants (SI units) ***

 *** Literature: B. J. Mohr and B. N. Taylor,
 ***             CODATA recommended values of the fundamental physical
 ***             constants: 2006, Web Version 5.1
 ***             http://physics.nist.gov/constants

 Speed of light in vacuum [m/s]                             2.99792458000000E+08
 Magnetic constant or permeability of vacuum [N/A**2]       1.25663706143592E-06
 Electric constant or permittivity of vacuum [F/m]          8.85418781762039E-12
 Planck constant (h) [J*s]                                  6.62606896000000E-34
 Planck constant (h-bar) [J*s]                              1.05457162825177E-34
 Elementary charge [C]                                      1.60217648700000E-19
 Electron mass [kg]                                         9.10938215000000E-31
 Electron g factor [ ]                                     -2.00231930436220E+00
 Proton mass [kg]                                           1.67262163700000E-27
 Fine-structure constant                                    7.29735253760000E-03
 Rydberg constant [1/m]                                     1.09737315685270E+07
 Avogadro constant [1/mol]                                  6.02214179000000E+23
 Boltzmann constant [J/K]                                   1.38065040000000E-23
 Atomic mass unit [kg]                                      1.66053878200000E-27
 Bohr radius [m]                                            5.29177208590000E-11

 *** Conversion factors ***

 [u] -> [a.u.]                                              1.82288848426455E+03
 [Angstrom] -> [Bohr] = [a.u.]                              1.88972613288564E+00
 [a.u.] = [Bohr] -> [Angstrom]                              5.29177208590000E-01
 [a.u.] -> [s]                                              2.41888432650478E-17
 [a.u.] -> [fs]                                             2.41888432650478E-02
 [a.u.] -> [J]                                              4.35974393937059E-18
 [a.u.] -> [N]                                              8.23872205491840E-08
 [a.u.] -> [K]                                              3.15774647902944E+05
 [a.u.] -> [kJ/mol]                                         2.62549961709828E+03
 [a.u.] -> [kcal/mol]                                       6.27509468713739E+02
 [a.u.] -> [Pa]                                             2.94210107994716E+13
 [a.u.] -> [bar]                                            2.94210107994716E+08
 [a.u.] -> [atm]                                            2.90362800883016E+08
 [a.u.] -> [eV]                                             2.72113838565563E+01
 [a.u.] -> [Hz]                                             6.57968392072181E+15
 [a.u.] -> [1/cm] (wave numbers)                            2.19474631370540E+05
 [a.u./Bohr**2] -> [1/cm]                                   5.14048714338585E+03
 

 CELL_TOP| Volume [angstrom^3]:                                      2198.132028
 CELL_TOP| Vector a [angstrom    15.120     0.000     0.000   |a| =    15.120000
 CELL_TOP| Vector b [angstrom     0.000    15.120     0.000   |b| =    15.120000
 CELL_TOP| Vector c [angstrom     0.000     0.000     9.615   |c| =     9.615020
 CELL_TOP| Angle (b,c), alpha [degree]:                                90.000000
 CELL_TOP| Angle (a,c), beta  [degree]:                                90.000000
 CELL_TOP| Angle (a,b), gamma [degree]:                                90.000000
 CELL_TOP| Requested initial symmetry:                       MONOCLINIC_GAMMA_AB
 CELL_TOP| Numerically orthorhombic:                                         YES
 CELL_TOP| Periodicity                                                       XYZ

 *** WARNING in atoms_input.F:123 :: Overwriting coordinates. Active    ***
 *** coordinates read from &COORD section. Active coordinates READ from ***
 *** &COORD section                                                     ***


 GENERATE|  Preliminary Number of Bonds generated:                             0
 GENERATE|  Achieved consistency in connectivity generation.

 CELL| Volume [angstrom^3]:                                          2198.132028
 CELL| Vector a [angstrom]:      15.120     0.000     0.000   |a| =    15.120000
 CELL| Vector b [angstrom]:       0.000    15.120     0.000   |b| =    15.120000
 CELL| Vector c [angstrom]:       0.000     0.000     9.615   |c| =     9.615020
 CELL| Angle (b,c), alpha [degree]:                                    90.000000
 CELL| Angle (a,c), beta  [degree]:                                    90.000000
 CELL| Angle (a,b), gamma [degree]:                                    90.000000
 CELL| Requested initial symmetry:                           MONOCLINIC_GAMMA_AB
 CELL| Numerically orthorhombic:                                             YES
 CELL| Periodicity                                                           XYZ

 CELL_REF| Volume [angstrom^3]:                                      2198.132028
 CELL_REF| Vector a [angstrom    15.120     0.000     0.000   |a| =    15.120000
 CELL_REF| Vector b [angstrom     0.000    15.120     0.000   |b| =    15.120000
 CELL_REF| Vector c [angstrom     0.000     0.000     9.615   |c| =     9.615020
 CELL_REF| Angle (b,c), alpha [degree]:                                90.000000
 CELL_REF| Angle (a,c), beta  [degree]:                                90.000000
 CELL_REF| Angle (a,b), gamma [degree]:                                90.000000
 CELL_REF| Requested initial symmetry:                       MONOCLINIC_GAMMA_AB
 CELL_REF| Numerically orthorhombic:                                         YES
 CELL_REF| Periodicity                                                       XYZ

 *******************************************************************************
 *******************************************************************************
 **                                                                           **
 **     #####                         ##              ##                      **
 **    ##   ##            ##          ##              ##                      **
 **   ##     ##                       ##            ######                    **
 **   ##     ##  ##   ##  ##   #####  ##  ##   ####   ##    #####    #####    **
 **   ##     ##  ##   ##  ##  ##      ## ##   ##      ##   ##   ##  ##   ##   **
 **   ##  ## ##  ##   ##  ##  ##      ####     ###    ##   ######   ######    **
 **    ##  ###   ##   ##  ##  ##      ## ##      ##   ##   ##       ##        **
 **     #######   #####   ##   #####  ##  ##  ####    ##    #####   ##        **
 **           ##                                                    ##        **
 **                                                                           **
 **                                                ... make the atoms dance   **
 **                                                                           **
 **            Copyright (C) by CP2K developers group (2000-2024)             **
 **                      J. Chem. Phys. 152, 194103 (2020)                    **
 **                                                                           **
 *******************************************************************************

 DFT| Spin unrestricted (spin-polarized) Kohn-Sham calculation               UKS
 DFT| Multiplicity                                                             1
 DFT| Number of spin states                                                    2
 DFT| Charge                                                                   0
 DFT| Self-interaction correction (SIC)                                       NO
 DFT| Cutoffs: density                                              1.000000E-10
 DFT|          gradient                                             1.000000E-10
 DFT|          tau                                                  1.000000E-10
 DFT|          cutoff_smoothing_range                               0.000000E+00
 DFT| XC density smoothing                                                  NONE
 DFT| XC derivatives                                                          PW

 DFT+U| Method                                                          MULLIKEN
 DFT+U| Check atomic kind information for details

 FUNCTIONAL| PBE:
 FUNCTIONAL| J.P.Perdew, K.Burke, M.Ernzerhof, Phys. Rev. Letter, vol. 77, n 18,
 FUNCTIONAL|  pp. 3865-3868, (1996) {spin polarized}                            


 QS| Method:                                                                 GPW
 QS| Density plane wave grid type                        NON-SPHERICAL FULLSPACE
 QS| Number of grid levels:                                                    4
 QS| Density cutoff [a.u.]:                                                300.0
 QS| Multi grid cutoff [a.u.]: 1) grid level                               300.0
 QS|                           2) grid level                               100.0
 QS|                           3) grid level                                33.3
 QS|                           4) grid level                                11.1
 QS| Grid level progression factor:                                          3.0
 QS| Relative density cutoff [a.u.]:                                        20.0
 QS| Interaction thresholds: eps_pgf_orb:                                1.0E-06
 QS|                         eps_filter_matrix:                          0.0E+00
 QS|                         eps_core_charge:                            1.0E-14
 QS|                         eps_rho_gspace:                             1.0E-12
 QS|                         eps_rho_rspace:                             1.0E-12
 QS|                         eps_gvg_rspace:                             1.0E-06
 QS|                         eps_ppl:                                    1.0E-02
 QS|                         eps_ppnl:                                   1.0E-08


 ATOMIC KIND INFORMATION

  1. Atomic kind: Ti                                    Number of atoms:      64

     Orbital Basis Set                                    DZVP-MOLOPT-SR-GTH-q12

       Number of orbital shell sets:                                           1
       Number of orbital shells:                                               8
       Number of primitive Cartesian functions:                                6
       Number of Cartesian basis functions:                                   31
       Number of spherical basis functions:                                   26
       Norm type:                                                              2

       Normalised Cartesian orbitals:

                        Set   Shell   Orbital            Exponent    Coefficient

                          1       1    2s                7.884570       0.015554
                                                         3.894698       0.963603
                                                         1.513589      -0.631435
                                                         0.596768      -0.343022
                                                         0.222222      -0.006534
                                                         0.077078       0.007652

                          1       2    3s                7.884570      -0.009340
                                                         3.894698       0.212624
                                                         1.513589      -0.258368
                                                         0.596768      -0.226206
                                                         0.222222       0.039438
                                                         0.077078       0.107179

                          1       3    4s                7.884570       0.276563
                                                         3.894698       0.105452
                                                         1.513589       0.085149
                                                         0.596768       0.882541
                                                         0.222222      -0.696223
                                                         0.077078       0.156638

                          1       4    3px               7.884570      -2.034794
                                                         3.894698       0.782008
                                                         1.513589       1.253903
                                                         0.596768       0.347823
                                                         0.222222       0.016778
                                                         0.077078      -0.000433
                          1       4    3py               7.884570      -2.034794
                                                         3.894698       0.782008
                                                         1.513589       1.253903
                                                         0.596768       0.347823
                                                         0.222222       0.016778
                                                         0.077078      -0.000433
                          1       4    3pz               7.884570      -2.034794
                                                         3.894698       0.782008
                                                         1.513589       1.253903
                                                         0.596768       0.347823
                                                         0.222222       0.016778
                                                         0.077078      -0.000433

                          1       5    4px               7.884570       0.376572
                                                         3.894698      -0.182875
                                                         1.513589      -0.474776
                                                         0.596768      -0.081757
                                                         0.222222       0.064432
                                                         0.077078       0.047279
                          1       5    4py               7.884570       0.376572
                                                         3.894698      -0.182875
                                                         1.513589      -0.474776
                                                         0.596768      -0.081757
                                                         0.222222       0.064432
                                                         0.077078       0.047279
                          1       5    4pz               7.884570       0.376572
                                                         3.894698      -0.182875
                                                         1.513589      -0.474776
                                                         0.596768      -0.081757
                                                         0.222222       0.064432
                                                         0.077078       0.047279

                          1       6    4dx2              7.884570       3.047350
                                                         3.894698       3.289529
                                                         1.513589       1.060616
                                                         0.596768       0.249930
                                                         0.222222       0.038806
                                                         0.077078       0.002319
                          1       6    4dxy              7.884570       5.278165
                                                         3.894698       5.697631
                                                         1.513589       1.837041
                                                         0.596768       0.432892
                                                         0.222222       0.067214
                                                         0.077078       0.004017
                          1       6    4dxz              7.884570       5.278165
                                                         3.894698       5.697631
                                                         1.513589       1.837041
                                                         0.596768       0.432892
                                                         0.222222       0.067214
                                                         0.077078       0.004017
                          1       6    4dy2              7.884570       3.047350
                                                         3.894698       3.289529
                                                         1.513589       1.060616
                                                         0.596768       0.249930
                                                         0.222222       0.038806
                                                         0.077078       0.002319
                          1       6    4dyz              7.884570       5.278165
                                                         3.894698       5.697631
                                                         1.513589       1.837041
                                                         0.596768       0.432892
                                                         0.222222       0.067214
                                                         0.077078       0.004017
                          1       6    4dz2              7.884570       3.047350
                                                         3.894698       3.289529
                                                         1.513589       1.060616
                                                         0.596768       0.249930
                                                         0.222222       0.038806
                                                         0.077078       0.002319

                          1       7    5dx2              7.884570      -2.119015
                                                         3.894698      -1.237751
                                                         1.513589      -0.746777
                                                         0.596768      -0.071514
                                                         0.222222       0.004086
                                                         0.077078       0.017595
                          1       7    5dxy              7.884570      -3.670241
                                                         3.894698      -2.143848
                                                         1.513589      -1.293455
                                                         0.596768      -0.123865
                                                         0.222222       0.007077
                                                         0.077078       0.030475
                          1       7    5dxz              7.884570      -3.670241
                                                         3.894698      -2.143848
                                                         1.513589      -1.293455
                                                         0.596768      -0.123865
                                                         0.222222       0.007077
                                                         0.077078       0.030475
                          1       7    5dy2              7.884570      -2.119015
                                                         3.894698      -1.237751
                                                         1.513589      -0.746777
                                                         0.596768      -0.071514
                                                         0.222222       0.004086
                                                         0.077078       0.017595
                          1       7    5dyz              7.884570      -3.670241
                                                         3.894698      -2.143848
                                                         1.513589      -1.293455
                                                         0.596768      -0.123865
                                                         0.222222       0.007077
                                                         0.077078       0.030475
                          1       7    5dz2              7.884570      -2.119015
                                                         3.894698      -1.237751
                                                         1.513589      -0.746777
                                                         0.596768      -0.071514
                                                         0.222222       0.004086
                                                         0.077078       0.017595

                          1       8    5fx3              7.884570      -0.342058
                                                         3.894698       0.375798
                                                         1.513589      -0.706469
                                                         0.596768      -0.229994
                                                         0.222222      -0.012723
                                                         0.077078       0.003932
                          1       8    5fx2y             7.884570      -0.764866
                                                         3.894698       0.840310
                                                         1.513589      -1.579712
                                                         0.596768      -0.514282
                                                         0.222222      -0.028450
                                                         0.077078       0.008792
                          1       8    5fx2z             7.884570      -0.764866
                                                         3.894698       0.840310
                                                         1.513589      -1.579712
                                                         0.596768      -0.514282
                                                         0.222222      -0.028450
                                                         0.077078       0.008792
                          1       8    5fxy2             7.884570      -0.764866
                                                         3.894698       0.840310
                                                         1.513589      -1.579712
                                                         0.596768      -0.514282
                                                         0.222222      -0.028450
                                                         0.077078       0.008792
                          1       8    5fxyz             7.884570      -1.324787
                                                         3.894698       1.455460
                                                         1.513589      -2.736142
                                                         0.596768      -0.890763
                                                         0.222222      -0.049276
                                                         0.077078       0.015229
                          1       8    5fxz2             7.884570      -0.764866
                                                         3.894698       0.840310
                                                         1.513589      -1.579712
                                                         0.596768      -0.514282
                                                         0.222222      -0.028450
                                                         0.077078       0.008792
                          1       8    5fy3              7.884570      -0.342058
                                                         3.894698       0.375798
                                                         1.513589      -0.706469
                                                         0.596768      -0.229994
                                                         0.222222      -0.012723
                                                         0.077078       0.003932
                          1       8    5fy2z             7.884570      -0.764866
                                                         3.894698       0.840310
                                                         1.513589      -1.579712
                                                         0.596768      -0.514282
                                                         0.222222      -0.028450
                                                         0.077078       0.008792
                          1       8    5fyz2             7.884570      -0.764866
                                                         3.894698       0.840310
                                                         1.513589      -1.579712
                                                         0.596768      -0.514282
                                                         0.222222      -0.028450
                                                         0.077078       0.008792
                          1       8    5fz3              7.884570      -0.342058
                                                         3.894698       0.375798
                                                         1.513589      -0.706469
                                                         0.596768      -0.229994
                                                         0.222222      -0.012723
                                                         0.077078       0.003932

       Atomic covalent radius [Angstrom]:                                  1.320

       Atomic van der Waals radius [Angstrom]:                             1.760

     GTH Potential information for                                   GTH-PBE-q12

       Description:                       Goedecker-Teter-Hutter pseudopotential
                                           Goedecker et al., PRB 54, 1703 (1996)
                                          Hartwigsen et al., PRB 58, 3641 (1998)
                                                      Krack, TCA 114, 145 (2005)

       Gaussian exponent of the core charge distribution:               3.462604
       Electronic configuration (s p d ...):                           4   6   2

       Parameters of the local part of the GTH pseudopotential:

                          rloc        C1          C2          C3          C4
                        0.380000    8.711442   -0.700287

       Parameters of the non-local part of the GTH pseudopotential:

                   l      r(l)      h(i,j,l)

                   0    0.337771    2.575264    3.692971
                                    3.692971   -4.767605
                   1    0.242531   -4.630541    8.870875
                                    8.870875  -10.496161
                   2    0.243317   -9.406653

  2. Atomic kind: O                                     Number of atoms:     128

     Orbital Basis Set                                     DZVP-MOLOPT-SR-GTH-q6

       Number of orbital shell sets:                                           1
       Number of orbital shells:                                               5
       Number of primitive Cartesian functions:                                5
       Number of Cartesian basis functions:                                   14
       Number of spherical basis functions:                                   13
       Norm type:                                                              2

       Normalised Cartesian orbitals:

                        Set   Shell   Orbital            Exponent    Coefficient

                          1       1    2s               10.389228       0.396646
                                                         3.849621       0.208811
                                                         1.388401      -0.301641
                                                         0.496955      -0.274061
                                                         0.162492      -0.033677

                          1       2    3s               10.389228       0.303673
                                                         3.849621       0.240943
                                                         1.388401      -0.313066
                                                         0.496955      -0.043055
                                                         0.162492       0.213991

                          1       3    3px              10.389228      -1.530415
                                                         3.849621      -1.371928
                                                         1.388401      -0.761951
                                                         0.496955      -0.253695
                                                         0.162492      -0.035541
                          1       3    3py              10.389228      -1.530415
                                                         3.849621      -1.371928
                                                         1.388401      -0.761951
                                                         0.496955      -0.253695
                                                         0.162492      -0.035541
                          1       3    3pz              10.389228      -1.530415
                                                         3.849621      -1.371928
                                                         1.388401      -0.761951
                                                         0.496955      -0.253695
                                                         0.162492      -0.035541

                          1       4    4px              10.389228      -0.565392
                                                         3.849621      -0.038231
                                                         1.388401      -0.382373
                                                         0.496955       0.179070
                                                         0.162492       0.122714
                          1       4    4py              10.389228      -0.565392
                                                         3.849621      -0.038231
                                                         1.388401      -0.382373
                                                         0.496955       0.179070
                                                         0.162492       0.122714
                          1       4    4pz              10.389228      -0.565392
                                                         3.849621      -0.038231
                                                         1.388401      -0.382373
                                                         0.496955       0.179070
                                                         0.162492       0.122714

                          1       5    4dx2             10.389228       1.867377
                                                         3.849621       0.670994
                                                         1.388401       1.353441
                                                         0.496955       0.273538
                                                         0.162492       0.006620
                          1       5    4dxy             10.389228       3.234392
                                                         3.849621       1.162195
                                                         1.388401       2.344229
                                                         0.496955       0.473781
                                                         0.162492       0.011466
                          1       5    4dxz             10.389228       3.234392
                                                         3.849621       1.162195
                                                         1.388401       2.344229
                                                         0.496955       0.473781
                                                         0.162492       0.011466
                          1       5    4dy2             10.389228       1.867377
                                                         3.849621       0.670994
                                                         1.388401       1.353441
                                                         0.496955       0.273538
                                                         0.162492       0.006620
                          1       5    4dyz             10.389228       3.234392
                                                         3.849621       1.162195
                                                         1.388401       2.344229
                                                         0.496955       0.473781
                                                         0.162492       0.011466
                          1       5    4dz2             10.389228       1.867377
                                                         3.849621       0.670994
                                                         1.388401       1.353441
                                                         0.496955       0.273538
                                                         0.162492       0.006620

       Atomic covalent radius [Angstrom]:                                  0.730

       Atomic van der Waals radius [Angstrom]:                             1.520

     GTH Potential information for                                    GTH-PBE-q6

       Description:                       Goedecker-Teter-Hutter pseudopotential
                                           Goedecker et al., PRB 54, 1703 (1996)
                                          Hartwigsen et al., PRB 58, 3641 (1998)
                                                      Krack, TCA 114, 145 (2005)

       Gaussian exponent of the core charge distribution:               8.360253
       Electronic configuration (s p d ...):                               2   4

       Parameters of the local part of the GTH pseudopotential:

                          rloc        C1          C2          C3          C4
                        0.244554  -16.667215    2.487311

       Parameters of the non-local part of the GTH pseudopotential:

                   l      r(l)      h(i,j,l)

                   0    0.220956   18.337458
                   1    0.211332

     A DFT+U correction is applied to atoms of this atomic kind:
       Angular quantum momentum number L:                                      1
       U(eff) = (U - J) value in [eV]:                                     4.500


 MOLECULE KIND INFORMATION


 All atoms are their own molecule, skipping detailed information


 TOTAL NUMBERS AND MAXIMUM NUMBERS

  Total number of            - Atomic kinds:                                   2
                             - Atoms:                                        192
                             - Shell sets:                                   192
                             - Shells:                                      1152
                             - Primitive Cartesian functions:               1024
                             - Cartesian basis functions:                   3776
                             - Spherical basis functions:                   3328

  Maximum angular momentum of- Orbital basis functions:                        3
                             - Local part of the GTH pseudopotential:          2
                             - Non-local part of the GTH pseudopotential:      3


 MODULE QUICKSTEP: ATOMIC COORDINATES IN ANGSTROM

   Atom Kind Element         X             Y             Z       Z(eff)     Mass
      1    1 Ti   22     -0.004643      0.004345      0.000710  12.0000  47.8670
      2    1 Ti   22      1.880165      1.888792      4.805840  12.0000  47.8670
      3    1 Ti   22     -0.002607      1.890932      2.400226  12.0000  47.8670
      4    1 Ti   22      1.872077      0.009480      7.208921  12.0000  47.8670
      5    1 Ti   22     -0.001581      3.778977      0.002530  12.0000  47.8670
      6    1 Ti   22      1.878991     13.235971      4.816337  12.0000  47.8670
      7    1 Ti   22     11.348081      1.890942      2.402712  12.0000  47.8670
      8    1 Ti   22      5.679541      0.009938      7.213258  12.0000  47.8670
      9    1 Ti   22      1.875028      3.777213      7.206381  12.0000  47.8670
     10    1 Ti   22     -0.007961     13.236281      2.398883  12.0000  47.8670
     11    1 Ti   22      5.668180      1.889137      4.801719  12.0000  47.8670
     12    1 Ti   22     11.348616      0.005551     -0.000365  12.0000  47.8670
     13    1 Ti   22      3.773310      0.011089     -0.036280  12.0000  47.8670
     14    1 Ti   22     13.233097      1.889216      4.806142  12.0000  47.8670
     15    1 Ti   22     13.230545      0.004556      7.207646  12.0000  47.8670
     16    1 Ti   22      3.772878      1.930717      2.412526  12.0000  47.8670
     17    1 Ti   22      1.880367      5.667382      4.810025  12.0000  47.8670
     18    1 Ti   22     -0.012831     11.352461      0.005628  12.0000  47.8670
     19    1 Ti   22     -0.002532      5.670590      2.395490  12.0000  47.8670
     20    1 Ti   22      1.849531     11.351592      7.207255  12.0000  47.8670
     21    1 Ti   22     -0.004664      7.572572      0.006028  12.0000  47.8670
     22    1 Ti   22      1.879575      9.462690      4.818982  12.0000  47.8670
     23    1 Ti   22      7.565169      1.892014      2.407535  12.0000  47.8670
     24    1 Ti   22      9.464202      0.005096      7.211937  12.0000  47.8670
     25    1 Ti   22      1.871160      7.563587      7.202061  12.0000  47.8670
     26    1 Ti   22     -0.007204      9.465646      2.397094  12.0000  47.8670
     27    1 Ti   22      9.459077      1.890289      4.802674  12.0000  47.8670
     28    1 Ti   22      7.567853      0.005195     -0.004550  12.0000  47.8670
     29    1 Ti   22      3.778882      3.776239     -0.042702  12.0000  47.8670
     30    1 Ti   22     13.231260     13.240591      4.803777  12.0000  47.8670
     31    1 Ti   22     11.348167      5.674728      2.397820  12.0000  47.8670
     32    1 Ti   22      5.714987     11.351438      7.212243  12.0000  47.8670
     33    1 Ti   22     13.232482      3.777300      7.204654  12.0000  47.8670
     34    1 Ti   22      3.771372     13.381956      2.442728  12.0000  47.8670
     35    1 Ti   22      5.668171      5.666359      4.805691  12.0000  47.8670
     36    1 Ti   22     11.352397     11.353006      0.007205  12.0000  47.8670
     37    1 Ti   22     11.345871     13.241222      2.402788  12.0000  47.8670
     38    1 Ti   22      5.685184      3.776977      7.211913  12.0000  47.8670
     39    1 Ti   22      3.779234     11.349609     -0.097304  12.0000  47.8670
     40    1 Ti   22     13.233167      5.668370      4.810672  12.0000  47.8670
     41    1 Ti   22      5.663926     13.235435      4.814206  12.0000  47.8670
     42    1 Ti   22     11.351650      3.780075      0.003353  12.0000  47.8670
     43    1 Ti   22     13.223725     11.351648      7.196397  12.0000  47.8670
     44    1 Ti   22      3.772941      5.625269      2.407253  12.0000  47.8670
     45    1 Ti   22      3.772946      7.559481     -0.033537  12.0000  47.8670
     46    1 Ti   22     13.231347      9.459117      4.805994  12.0000  47.8670
     47    1 Ti   22      7.565105      5.675694      2.402458  12.0000  47.8670
     48    1 Ti   22      9.479486     11.352529      7.197546  12.0000  47.8670
     49    1 Ti   22     13.230451      7.568952      7.200974  12.0000  47.8670
     50    1 Ti   22      3.771500      9.313635      2.439476  12.0000  47.8670
     51    1 Ti   22      9.459101      5.675093      4.806805  12.0000  47.8670
     52    1 Ti   22      7.590288     11.353243      0.000670  12.0000  47.8670
     53    1 Ti   22     11.346261      9.461885      2.400001  12.0000  47.8670
     54    1 Ti   22      5.679661      7.562626      7.206179  12.0000  47.8670
     55    1 Ti   22      5.663570      9.462884      4.816859  12.0000  47.8670
     56    1 Ti   22     11.349061      7.572452      0.004342  12.0000  47.8670
     57    1 Ti   22      9.467877      3.779868      7.204264  12.0000  47.8670
     58    1 Ti   22      7.563879     13.237021      2.406123  12.0000  47.8670
     59    1 Ti   22      7.579050      3.781142     -0.001340  12.0000  47.8670
     60    1 Ti   22      9.455404     13.242447      4.799315  12.0000  47.8670
     61    1 Ti   22      7.567222      7.574863     -0.000533  12.0000  47.8670
     62    1 Ti   22      9.455626      9.460286      4.800820  12.0000  47.8670
     63    1 Ti   22      7.563140      9.466851      2.404191  12.0000  47.8670
     64    1 Ti   22      9.464389      7.572290      7.207030  12.0000  47.8670
     65    2 O     8      0.006139     -0.000581      1.989843   6.0000  15.9994
     66    2 O     8      1.884530      1.887100      6.797122   6.0000  15.9994
     67    2 O     8      0.000144      1.885417      4.389519   6.0000  15.9994
     68    2 O     8      1.886426     -0.003367      9.199597   6.0000  15.9994
     69    2 O     8      1.877879      0.002974      5.223229   6.0000  15.9994
     70    2 O     8      0.000421      1.887606      0.414741   6.0000  15.9994
     71    2 O     8      1.886355      1.889035      2.818722   6.0000  15.9994
     72    2 O     8      0.000583      0.000809      7.625415   6.0000  15.9994
     73    2 O     8     -0.000210      3.777989      1.982255   6.0000  15.9994
     74    2 O     8      1.883986     13.234697      6.796160   6.0000  15.9994
     75    2 O     8     11.348501      1.885440      4.388544   6.0000  15.9994
     76    2 O     8      5.667646     -0.002946      9.199410   6.0000  15.9994
     77    2 O     8      1.882365      3.775614      5.225434   6.0000  15.9994
     78    2 O     8     -0.000622     13.237506      0.413003   6.0000  15.9994
     79    2 O     8      5.663140      1.894377      2.818774   6.0000  15.9994
     80    2 O     8     11.349647      0.000554      7.625089   6.0000  15.9994
     81    2 O     8      3.773595     -0.001503      7.633155   6.0000  15.9994
     82    2 O     8     13.235524      1.885032      2.816465   6.0000  15.9994
     83    2 O     8     13.235499      0.000894      9.197353   6.0000  15.9994
     84    2 O     8      3.772417      1.888148      4.386523   6.0000  15.9994
     85    2 O     8      1.884288      5.673134      6.797677   6.0000  15.9994
     86    2 O     8     -0.007679     11.352472      1.979830   6.0000  15.9994
     87    2 O     8      0.000306      5.678311      0.414748   6.0000  15.9994
     88    2 O     8      1.889926     11.351441      5.227461   6.0000  15.9994
     89    2 O     8      0.006445      7.575719      1.991538   6.0000  15.9994
     90    2 O     8      1.883911      9.465747      6.793356   6.0000  15.9994
     91    2 O     8      7.560743      1.885699      4.391031   6.0000  15.9994
     92    2 O     8      9.460235      0.001308      9.195907   6.0000  15.9994
     93    2 O     8      1.877996      7.565182      5.221271   6.0000  15.9994
     94    2 O     8     -0.000552      9.465209      0.414903   6.0000  15.9994
     95    2 O     8      9.456256      1.881485      2.818185   6.0000  15.9994
     96    2 O     8      7.563058      0.001229      7.625163   6.0000  15.9994
     97    2 O     8      3.767679      0.042927      1.993921   6.0000  15.9994
     98    2 O     8     13.237082      1.887098      6.793776   6.0000  15.9994
     99    2 O     8      0.000210      5.655172      4.390210   6.0000  15.9994
    100    2 O     8      1.884679     11.354054      9.207864   6.0000  15.9994
    101    2 O     8     13.236783      0.002190      5.220397   6.0000  15.9994
    102    2 O     8      3.769097      1.886422      0.404623   6.0000  15.9994
    103    2 O     8      1.886016      5.652272      2.817942   6.0000  15.9994
    104    2 O     8      0.000129     11.354237      7.621065   6.0000  15.9994
    105    2 O     8     11.353687      1.889396      0.415832   6.0000  15.9994
    106    2 O     8      5.661317      0.003499      5.223815   6.0000  15.9994
    107    2 O     8      5.654743      1.887403      6.798424   6.0000  15.9994
    108    2 O     8     11.352431      0.002664      1.987978   6.0000  15.9994
    109    2 O     8      1.885277      3.770601      9.193956   6.0000  15.9994
    110    2 O     8      0.004206     13.242542      4.383358   6.0000  15.9994
    111    2 O     8      0.000019      3.769908      7.623176   6.0000  15.9994
    112    2 O     8      1.897977     13.174276      2.811493   6.0000  15.9994
    113    2 O     8      3.767658      3.776083      1.963258   6.0000  15.9994
    114    2 O     8     13.237721     13.236676      6.788678   6.0000  15.9994
    115    2 O     8     11.348360      5.653813      4.388862   6.0000  15.9994
    116    2 O     8      5.684454     11.353827      9.207075   6.0000  15.9994
    117    2 O     8     13.236823      3.776127      5.224505   6.0000  15.9994
    118    2 O     8      3.770007     13.211211      0.468365   6.0000  15.9994
    119    2 O     8      5.663239      5.650453      2.818175   6.0000  15.9994
    120    2 O     8     11.352886     11.354492      7.619081   6.0000  15.9994
    121    2 O     8     11.353155     13.237921      0.415668   6.0000  15.9994
    122    2 O     8      5.657200      3.775377      5.226487   6.0000  15.9994
    123    2 O     8      3.777691     11.353628      7.641566   6.0000  15.9994
    124    2 O     8     13.235714      5.661924      2.816499   6.0000  15.9994
    125    2 O     8      5.654735     13.234574      6.797632   6.0000  15.9994
    126    2 O     8     11.348471      3.780928      1.987086   6.0000  15.9994
    127    2 O     8     13.234516     11.354354      9.191052   6.0000  15.9994
    128    2 O     8      3.772360      5.651211      4.386961   6.0000  15.9994
    129    2 O     8      5.655186      5.672193      6.799071   6.0000  15.9994
    130    2 O     8     11.351309     11.353062      1.986515   6.0000  15.9994
    131    2 O     8     13.236540      3.770937      9.198838   6.0000  15.9994
    132    2 O     8      3.770248     13.304856      4.404478   6.0000  15.9994
    133    2 O     8     11.353521      5.677819      0.414532   6.0000  15.9994
    134    2 O     8      5.646474     11.351414      5.229088   6.0000  15.9994
    135    2 O     8      3.777576      3.769722      7.623041   6.0000  15.9994
    136    2 O     8     13.235154     13.236513      2.815142   6.0000  15.9994
    137    2 O     8     13.238028     11.352107      5.216808   6.0000  15.9994
    138    2 O     8      3.769797      5.674339      0.404341   6.0000  15.9994
    139    2 O     8      5.646918     13.171612      2.810367   6.0000  15.9994
    140    2 O     8     11.351633      3.770642      7.624732   6.0000  15.9994
    141    2 O     8      3.766532     11.351812      2.140555   6.0000  15.9994
    142    2 O     8     13.237077      5.674690      6.794452   6.0000  15.9994
    143    2 O     8     11.346589     13.239382      4.387907   6.0000  15.9994
    144    2 O     8      5.682641      3.770591      9.195843   6.0000  15.9994
    145    2 O     8      3.766818      7.527032      1.997838   6.0000  15.9994
    146    2 O     8     13.237775      9.463989      6.783679   6.0000  15.9994
    147    2 O     8      7.561052      5.653675      4.391382   6.0000  15.9994
    148    2 O     8      9.467712     11.354722      9.184466   6.0000  15.9994
    149    2 O     8     13.236350      7.567415      5.218327   6.0000  15.9994
    150    2 O     8      3.769243      9.482974      0.469836   6.0000  15.9994
    151    2 O     8      9.456309      5.707415      2.817521   6.0000  15.9994
    152    2 O     8      7.573854     11.354397      7.618013   6.0000  15.9994
    153    2 O     8     11.352961      9.466323      0.416876   6.0000  15.9994
    154    2 O     8      5.661432      7.563775      5.221146   6.0000  15.9994
    155    2 O     8      5.654868      9.465551      6.794722   6.0000  15.9994
    156    2 O     8     11.355913      7.574806      1.987426   6.0000  15.9994
    157    2 O     8      9.464917      3.771902      9.194623   6.0000  15.9994
    158    2 O     8      7.546987     13.242319      4.386515   6.0000  15.9994
    159    2 O     8      7.573903      3.770925      7.621383   6.0000  15.9994
    160    2 O     8      9.451211     13.239960      2.818077   6.0000  15.9994
    161    2 O     8      7.528980      0.000122      1.991602   6.0000  15.9994
    162    2 O     8      9.468806      1.887947      6.792572   6.0000  15.9994
    163    2 O     8      0.004497      9.463498      4.384707   6.0000  15.9994
    164    2 O     8      1.886159      7.587966      9.198889   6.0000  15.9994
    165    2 O     8      9.466175      0.002540      5.219277   6.0000  15.9994
    166    2 O     8      7.585579      1.888712      0.416635   6.0000  15.9994
    167    2 O     8      1.898589      9.532174      2.811421   6.0000  15.9994
    168    2 O     8      0.000620      7.583910      7.624192   6.0000  15.9994
    169    2 O     8      7.583266      3.782029      1.986283   6.0000  15.9994
    170    2 O     8      9.467488     13.237891      6.787884   6.0000  15.9994
    171    2 O     8     11.346801      9.468294      4.388551   6.0000  15.9994
    172    2 O     8      5.666767      7.588017      9.198020   6.0000  15.9994
    173    2 O     8      9.468072      3.779108      5.220588   6.0000  15.9994
    174    2 O     8      7.586617     13.238612      0.413846   6.0000  15.9994
    175    2 O     8      5.646149      9.536539      2.810342   6.0000  15.9994
    176    2 O     8     11.350009      7.585238      7.623827   6.0000  15.9994
    177    2 O     8      3.773158      7.584842      7.631493   6.0000  15.9994
    178    2 O     8     13.235535      9.472547      2.814793   6.0000  15.9994
    179    2 O     8     13.235846      7.584555      9.196645   6.0000  15.9994
    180    2 O     8      3.770325      9.402376      4.405025   6.0000  15.9994
    181    2 O     8      9.468932      5.679614      6.793295   6.0000  15.9994
    182    2 O     8      7.586278     11.353257      1.981715   6.0000  15.9994
    183    2 O     8      7.585447      5.681872      0.415414   6.0000  15.9994
    184    2 O     8      9.465325     11.352851      5.214831   6.0000  15.9994
    185    2 O     8      7.525946      7.579849      1.991360   6.0000  15.9994
    186    2 O     8      9.467465      9.465193      6.784082   6.0000  15.9994
    187    2 O     8      7.546456      9.464739      4.387316   6.0000  15.9994
    188    2 O     8      9.460226      7.585222      9.195891   6.0000  15.9994
    189    2 O     8      9.465906      7.572415      5.218620   6.0000  15.9994
    190    2 O     8      7.586445      9.466421      0.414628   6.0000  15.9994
    191    2 O     8      9.451330      9.468494      2.817475   6.0000  15.9994
    192    2 O     8      7.562261      7.584002      7.623490   6.0000  15.9994



 SCF PARAMETERS         Density guess:                                   RESTART
                        --------------------------------------------------------
                        max_scf:                                              40
                        max_scf_history:                                       0
                        max_diis:                                              4
                        --------------------------------------------------------
                        eps_scf:                                        1.00E-06
                        eps_scf_history:                                0.00E+00
                        eps_diis:                                       1.00E-01
                        eps_eigval:                                     1.00E-05
                        --------------------------------------------------------
                        level_shift [a.u.]:                             0.000000
                        --------------------------------------------------------
                        Outer loop SCF in use 
                        No variables optimised in outer loop
                        eps_scf                                         1.00E-06
                        max_scf                                               60
                        No outer loop optimization
                        step_size                                       5.00E-01

 PW_GRID| Information for grid number                                          1
 PW_GRID| Grid distributed over                                   128 processors
 PW_GRID| Real space group dimensions                                   128    1
 PW_GRID| the grid is blocked:                                                NO
 PW_GRID| Cutoff [a.u.]                                                    300.0
 PW_GRID| spherical cutoff:                                                   NO
 PW_GRID|   Bounds   1           -112     112                Points:         225
 PW_GRID|   Bounds   2           -112     112                Points:         225
 PW_GRID|   Bounds   3            -72      71                Points:         144
 PW_GRID| Volume element (a.u.^3)  0.2035E-02     Volume (a.u.^3)     14833.7304
 PW_GRID| Grid span                                                    FULLSPACE
 PW_GRID|   Distribution                         Average         Max         Min
 PW_GRID|   G-Vectors                            56953.1       57150       56925
 PW_GRID|   G-Rays                                 253.1         254         253
 PW_GRID|   Real Space Points                    56953.1       64800       32400

 PW_GRID| Information for grid number                                          2
 PW_GRID| Number of the reference grid                                         1
 PW_GRID| Grid distributed over                                   128 processors
 PW_GRID| Real space group dimensions                                   128    1
 PW_GRID| the grid is blocked:                                                NO
 PW_GRID| Cutoff [a.u.]                                                    100.0
 PW_GRID| spherical cutoff:                                                   NO
 PW_GRID|   Bounds   1            -67      67                Points:         135
 PW_GRID|   Bounds   2            -67      67                Points:         135
 PW_GRID|   Bounds   3            -40      40                Points:          81
 PW_GRID| Volume element (a.u.^3)  0.1005E-01     Volume (a.u.^3)     14833.7304
 PW_GRID| Grid span                                                    FULLSPACE
 PW_GRID|   Distribution                         Average         Max         Min
 PW_GRID|   G-Vectors                            11533.0       12150       10800
 PW_GRID|   G-Rays                                  85.4          90          80
 PW_GRID|   Real Space Points                    11533.0       21870       10935

 PW_GRID| Information for grid number                                          3
 PW_GRID| Number of the reference grid                                         1
 PW_GRID| Grid distributed over                                   128 processors
 PW_GRID| Real space group dimensions                                     8   16
 PW_GRID| the grid is blocked:                                                NO
 PW_GRID| Cutoff [a.u.]                                                     33.3
 PW_GRID| spherical cutoff:                                                   NO
 PW_GRID|   Bounds   1            -37      37                Points:          75
 PW_GRID|   Bounds   2            -37      37                Points:          75
 PW_GRID|   Bounds   3            -24      23                Points:          48
 PW_GRID| Volume element (a.u.^3)  0.5494E-01     Volume (a.u.^3)     14833.7304
 PW_GRID| Grid span                                                    FULLSPACE
 PW_GRID|   Distribution                         Average         Max         Min
 PW_GRID|   G-Vectors                             2109.4        2475        1725
 PW_GRID|   G-Rays                                  28.1          33          23
 PW_GRID|   Real Space Points                     2109.4        2400        1728

 PW_GRID| Information for grid number                                          4
 PW_GRID| Number of the reference grid                                         1
 PW_GRID| Grid distributed over                                   128 processors
 PW_GRID| Real space group dimensions                                     8   16
 PW_GRID| the grid is blocked:                                                NO
 PW_GRID| Cutoff [a.u.]                                                     11.1
 PW_GRID| spherical cutoff:                                                   NO
 PW_GRID|   Bounds   1            -22      22                Points:          45
 PW_GRID|   Bounds   2            -22      22                Points:          45
 PW_GRID|   Bounds   3            -13      13                Points:          27
 PW_GRID| Volume element (a.u.^3)  0.2713         Volume (a.u.^3)     14833.7304
 PW_GRID| Grid span                                                    FULLSPACE
 PW_GRID|   Distribution                         Average         Max         Min
 PW_GRID|   G-Vectors                              427.1         585         270
 PW_GRID|   G-Rays                                   9.5          13           6
 PW_GRID|   Real Space Points                      427.1         486         270

 POISSON| Solver                                                        PERIODIC
 POISSON| Periodicity                                                        XYZ

 RS_GRID| Information for grid number                                          1
 RS_GRID|   Bounds   1           -112     112                Points:         225
 RS_GRID|   Bounds   2           -112     112                Points:         225
 RS_GRID|   Bounds   3            -72      71                Points:         144
 RS_GRID| Real space distribution over                                  8 groups
 RS_GRID| Real space distribution along direction                              1
 RS_GRID| Border size                                                         26
 RS_GRID| Real space distribution over                                 16 groups
 RS_GRID| Real space distribution along direction                              2
 RS_GRID| Border size                                                         26
 RS_GRID|   Distribution                         Average         Max         Min
 RS_GRID|   Planes                                  80.1          81          80
 RS_GRID|   Distribution                         Average         Max         Min
 RS_GRID|   Planes                                  66.1          67          66

 RS_GRID| Information for grid number                                          2
 RS_GRID|   Bounds   1            -67      67                Points:         135
 RS_GRID|   Bounds   2            -67      67                Points:         135
 RS_GRID|   Bounds   3            -40      40                Points:          81
 RS_GRID| Real space distribution over                                  8 groups
 RS_GRID| Real space distribution along direction                              1
 RS_GRID| Border size                                                         24
 RS_GRID| Real space distribution over                                 16 groups
 RS_GRID| Real space distribution along direction                              2
 RS_GRID| Border size                                                         24
 RS_GRID|   Distribution                         Average         Max         Min
 RS_GRID|   Planes                                  64.9          65          64
 RS_GRID|   Distribution                         Average         Max         Min
 RS_GRID|   Planes                                  56.4          57          56

 RS_GRID| Information for grid number                                          3
 RS_GRID|   Bounds   1            -37      37                Points:          75
 RS_GRID|   Bounds   2            -37      37                Points:          75
 RS_GRID|   Bounds   3            -24      23                Points:          48
 RS_GRID| Real space fully replicated
 RS_GRID| Group size                                                           1

 RS_GRID| Information for grid number                                          4
 RS_GRID|   Bounds   1            -22      22                Points:          45
 RS_GRID|   Bounds   2            -22      22                Points:          45
 RS_GRID|   Bounds   3            -13      13                Points:          27
 RS_GRID| Real space fully replicated
 RS_GRID| Group size                                                           1

 Spin 1

 Number of electrons:                                                        768
 Number of occupied orbitals:                                                768
 Number of molecular orbitals:                                               768

 Spin 2

 Number of electrons:                                                        768
 Number of occupied orbitals:                                                768
 Number of molecular orbitals:                                               768

 Number of orbital functions:                                               3328
 Number of independent orbital functions:                                   3328

 Extrapolation method: initial_guess

 *** WARNING in qs_initial_guess.F:306 :: User requested to restart the    ***
 *** wavefunction from the file named: tio2-RESTART.wfn. This file does    ***
 *** not exist. Please check the existence of the file or change properly  ***
 *** the value of the keyword WFN_RESTART_FILE_NAME. Calculation continues ***
 *** using ATOMIC GUESS.                                                   ***


 Atomic guess: The first density matrix is obtained in terms of atomic orbitals
               and electronic configurations assigned to each atomic kind

 Guess for atomic kind: Ti

 Electronic structure
    Total number of core electrons                                         10.00
    Total number of valence electrons                                      12.00
    Total number of electrons                                              22.00
    Multiplicity                                                   not specified
    S   [  2.00  2.00] 2.00  2.00
    P   [  6.00] 6.00
    D      2.00


 *******************************************************************************
                  Iteration          Convergence                     Energy [au]
 *******************************************************************************
                          1         2.59099                     -56.573945749309
                          2        0.737518                     -57.461623245624
                          3        0.123244E-01                 -57.676656834797
                          4        0.338536E-02                 -57.676690535970
                          5        0.252157E-03                 -57.676697146183
                          6        0.162704E-05                 -57.676697160103
                          7        0.846593E-06                 -57.676697160104

 Energy components [Hartree]           Total Energy ::          -57.676697160104
                                        Band Energy ::          -13.440549799540
                                     Kinetic Energy ::           25.008468428381
                                   Potential Energy ::          -82.685165588485
                                      Virial (-V/T) ::            3.306286661467
                                        Core Energy ::          -97.155838374470
                                          XC Energy ::           -6.919409696495
                                     Coulomb Energy ::           46.398550910862
                       Total Pseudopotential Energy ::         -122.259340742080
                       Local Pseudopotential Energy ::         -118.928992669456
                    Nonlocal Pseudopotential Energy ::           -3.330348072625
                                        Confinement ::            0.950339392289

 Orbital energies  State     L     Occupation   Energy[a.u.]          Energy[eV]

                       1     0          2.000      -2.312566          -62.928123
                       2     0          2.000      -0.123060           -3.348633

                       1     1          6.000      -1.385567          -37.703193

                       1     2          2.000      -0.127948           -3.481643


 Total Electron Density at R=0:                                         0.004726

 Guess for atomic kind: O

 Electronic structure
    Total number of core electrons                                          2.00
    Total number of valence electrons                                       6.00
    Total number of electrons                                               8.00
    Multiplicity                                                   not specified
    S   [  2.00] 2.00
    P      4.00


 *******************************************************************************
                  Iteration          Convergence                     Energy [au]
 *******************************************************************************
                          1        0.702811                     -15.577904332270
                          2        0.612408                     -15.588447180504
                          3        0.955344E-02                 -15.655871208406
                          4        0.223754E-02                 -15.655885053552
                          5        0.157183E-02                 -15.655885461027
                          6        0.124953E-02                 -15.655885607150
                          7        0.312011E-06                 -15.655885858066

 Energy components [Hartree]           Total Energy ::          -15.655885858066
                                        Band Energy ::           -2.983128125584
                                     Kinetic Energy ::           11.754765134683
                                   Potential Energy ::          -27.410650992749
                                      Virial (-V/T) ::            2.331875684345
                                        Core Energy ::          -26.153522949072
                                          XC Energy ::           -3.157392363346
                                     Coulomb Energy ::           13.655029454351
                       Total Pseudopotential Energy ::          -37.943026860963
                       Local Pseudopotential Energy ::          -39.220419683052
                    Nonlocal Pseudopotential Energy ::            1.277392822089
                                        Confinement ::            0.347387772086

 Orbital energies  State     L     Occupation   Energy[a.u.]          Energy[eV]

                       1     0          2.000      -0.861522          -23.443215

                       1     1          4.000      -0.315021           -8.572154


 Total Electron Density at R=0:                                         0.000093

 Spin 1
 Re-scaling the density matrix to get the right number of electrons for spin 1
                  # Electrons              Trace(P)               Scaling factor
                          768               768.001                        1.000

 Spin 2
 Re-scaling the density matrix to get the right number of electrons for spin 2
                  # Electrons              Trace(P)               Scaling factor
                          768               768.001                        1.000


 SCF WAVEFUNCTION OPTIMIZATION

  ----------------------------------- OT ---------------------------------------
  Minimizer      : DIIS                : direct inversion
                                         in the iterative subspace
                                         using   7 DIIS vectors
                                         safer DIIS on
  Preconditioner : FULL_SINGLE_INVERSE : inversion of 
                                         H + eS - 2*(Sc)(c^T*H*c+const)(Sc)^T
  Precond_solver : DEFAULT
  stepsize       :    0.08000000                  energy_gap     :    0.08000000
  eps_taylor     :   0.10000E-15                  max_taylor     :             4
  ----------------------------------- OT ---------------------------------------

  Step     Update method      Time    Convergence         Total energy    Change
  ------------------------------------------------------------------------------
     1 OT DIIS     0.80E-01    2.1     0.01000880     -5653.9959294397 -5.65E+03
     2 OT DIIS     0.80E-01    1.5     0.00723911     -5688.6491961576 -3.47E+01
     3 OT DIIS     0.80E-01    1.5     0.00471605     -5720.3192543126 -3.17E+01
     4 OT DIIS     0.80E-01    1.5     0.00369307     -5730.7147286181 -1.04E+01
     5 OT DIIS     0.80E-01    1.5     0.00269455     -5742.3553986201 -1.16E+01
     6 OT DIIS     0.80E-01    1.5     0.00221389     -5749.3268439701 -6.97E+00
     7 OT DIIS     0.80E-01    1.5     0.00186018     -5755.4328826579 -6.11E+00
     8 OT DIIS     0.80E-01    1.5     0.00148993     -5761.3777034155 -5.94E+00
     9 OT DIIS     0.80E-01    1.5     0.00128146     -5765.0969690208 -3.72E+00
    10 OT DIIS     0.80E-01    1.4     0.00099719     -5768.3777408492 -3.28E+00
    11 OT DIIS     0.80E-01    1.5     0.00090825     -5769.1923068446 -8.15E-01
    12 OT DIIS     0.80E-01    1.5     0.00073355     -5771.0161673272 -1.82E+00
    13 OT DIIS     0.80E-01    1.5     0.00060042     -5772.3499163549 -1.33E+00
    14 OT DIIS     0.80E-01    1.5     0.00049603     -5773.2958007497 -9.46E-01
    15 OT DIIS     0.80E-01    1.5     0.00045003     -5773.7404451811 -4.45E-01
    16 OT DIIS     0.80E-01    1.4     0.00037689     -5774.3194989201 -5.79E-01
    17 OT DIIS     0.80E-01    1.5     0.00037256     -5774.4088346746 -8.93E-02
    18 OT DIIS     0.80E-01    1.5     0.00031434     -5774.7722504081 -3.63E-01
    19 OT DIIS     0.80E-01    1.4     0.00027644     -5775.0408634438 -2.69E-01
    20 OT DIIS     0.80E-01    1.4     0.00026092     -5775.1517631132 -1.11E-01
    21 OT DIIS     0.80E-01    1.5     0.00022383     -5775.4128404790 -2.61E-01
    22 OT DIIS     0.80E-01    1.4     0.00020700     -5775.5463312297 -1.33E-01
    23 OT DIIS     0.80E-01    1.5     0.00018646     -5775.6794404464 -1.33E-01
    24 OT DIIS     0.80E-01    1.4     0.00018987     -5775.7144881838 -3.50E-02
    25 OT DIIS     0.80E-01    1.5     0.00017084     -5775.7872849799 -7.28E-02
    26 OT DIIS     0.80E-01    1.5     0.00016051     -5775.8868224341 -9.95E-02
    27 OT DIIS     0.80E-01    1.4     0.00015730     -5775.9072060621 -2.04E-02
    28 OT SD       0.80E-01    1.5     0.00015320     -5775.9741915972 -6.70E-02
    29 OT DIIS     0.80E-01    1.4     0.00015126     -5775.9837224391 -9.53E-03
    30 OT DIIS     0.80E-01    1.4     0.00014675     -5776.0545942345 -7.09E-02
    31 OT DIIS     0.80E-01    1.5     0.00014546     -5776.0603078075 -5.71E-03
    32 OT DIIS     0.80E-01    1.4     0.00014034     -5776.0931659488 -3.29E-02
    33 OT DIIS     0.80E-01    1.4     0.00013258     -5776.1749822140 -8.18E-02
    34 OT DIIS     0.80E-01    1.4     0.00012748     -5776.1993647197 -2.44E-02
    35 OT DIIS     0.80E-01    1.5     0.00012642     -5776.2660122810 -6.66E-02
    36 OT DIIS     0.80E-01    1.5     0.00011573     -5776.2842068160 -1.82E-02
    37 OT DIIS     0.80E-01    1.4     0.00010773     -5776.3215009786 -3.73E-02
    38 OT DIIS     0.80E-01    1.4     0.00009960     -5776.3557489712 -3.42E-02
    39 OT SD       0.80E-01    1.5     0.00009716     -5776.3877881805 -3.20E-02
    40 OT DIIS     0.80E-01    1.4     0.00009227     -5776.3915405938 -3.75E-03

  Leaving inner SCF loop after reaching    40 steps.


  Electronic density on regular grids:      -1535.9999999999        0.0000000001
  Core density on regular grids:             1535.9999999995       -0.0000000005
  Total charge density on r-space grids:       -0.0000000004
  Total charge density g-space grids:          -0.0000000004

  Overlap energy of the core charge distribution:               0.00000000000403
  Self energy of the core charge distribution:             -12156.89556134359555
  Core Hamiltonian energy:                                   3279.60074392103115
  Hartree energy:                                            4014.68842012006780
  Exchange-correlation energy:                               -925.85821664122682

  DFT+U energy:                                                12.07307334994743

  Total energy:                                             -5776.39154059377142

  outer SCF iter =    1 RMS gradient =   0.92E-04 energy =      -5776.3915405938

  ----------------------------------- OT ---------------------------------------
  Minimizer      : DIIS                : direct inversion
                                         in the iterative subspace
                                         using   7 DIIS vectors
                                         safer DIIS on
  Preconditioner : FULL_SINGLE_INVERSE : inversion of 
                                         H + eS - 2*(Sc)(c^T*H*c+const)(Sc)^T
  Precond_solver : DEFAULT
  stepsize       :    0.08000000                  energy_gap     :    0.08000000
  eps_taylor     :   0.10000E-15                  max_taylor     :             4
  ----------------------------------- OT ---------------------------------------

[...]
 flops    13 x    13 x    32          88736194560       0.0%    100.0%      0.0%     
 flops    26 x    13 x    32          90731184128       0.0%    100.0%      0.0%     
 flops    13 x    26 x    32          90731184128       0.0%    100.0%      0.0%     
 flops    26 x    26 x    32          92148858880       0.0%    100.0%      0.0%     
 flops    96 x    32 x    32         106300440576       0.0%    100.0%      0.0%     
 flops    13 x    13 x    64         177472389120       0.0%    100.0%      0.0%     
 flops    26 x    13 x    64         181462368256       0.0%    100.0%      0.0%     
 flops    13 x    26 x    64         181462368256       0.0%    100.0%      0.0%     
 flops    26 x    26 x    64         184297717760       0.0%    100.0%      0.0%     
 flops    96 x    64 x    32         212600881152       0.0%    100.0%      0.0%     
 flops    96 x    32 x    64         212600881152       0.0%    100.0%      0.0%     
 flops   416 x    32 x    32         262596984832       0.0%    100.0%      0.0%     
 flops    96 x    64 x    64         425201762304       0.0%    100.0%      0.0%     
 flops   416 x    64 x    32         525193969664       0.0%    100.0%      0.0%     
 flops   416 x    32 x    64         525193969664       0.0%    100.0%      0.0%     
 flops    96 x    32 x   208         642615607296       0.0%    100.0%      0.0%     
 flops   416 x    32 x   208         734355521536       0.0%    100.0%      0.0%     
 flops   416 x    64 x    64        1050387939328       0.0%    100.0%      0.0%     
 flops    13 x    32 x    13        1117114552320       0.0%    100.0%      0.0%     
 flops    26 x    32 x    26        1152569573376       0.0%    100.0%      0.0%     
 flops    26 x    32 x    13        1152569573376       0.0%    100.0%      0.0%     
 flops    13 x    32 x    26        1152569573376       0.0%    100.0%      0.0%     
 flops    96 x    64 x   208        1286376259584       0.0%    100.0%      0.0%     
 flops   416 x    64 x   208        1474381742080       0.0%    100.0%      0.0%     
 flops inhomo. stacks                     2610428     100.0%      0.0%      0.0%
 flops total                        13.157821E+12       0.0%    100.0%      0.0%
 flops max/rank                    135.901963E+09       0.0%    100.0%      0.0%
 matmuls inhomo. stacks                      3774     100.0%      0.0%      0.0%
 matmuls total                          288795182       0.0%    100.0%      0.0%
 number of processed stacks               8136862       0.0%    100.0%      0.0%
 average stack size                                     1.0      35.5       0.0
 marketing flops                    14.322065E+12
 -------------------------------------------------------------------------------
 # multiplications                           4529
 max memory usage/rank             348.270592E+06
 # max total images/rank                        2
 # max 3D layers                                1
 # MPI messages exchanged                16811648
 MPI messages size (bytes):
  total size                         1.671878E+12
  min size                           0.000000E+00
  max size                         692.224000E+03
  average size                      99.447586E+03
 MPI breakdown and total messages size (bytes):
             size <=      128             5591584                   134464
       128 < size <=     8192              941952               6487674080
      8192 < size <=    32768             3314912              75373993712
     32768 < size <=   131072             3693440             282478956544
    131072 < size <=  4194304             3269760            1307558216640
   4194304 < size <= 16777216                   0                        0
  16777216 < size                               0                        0
 -------------------------------------------------------------------------------

 *** WARNING in dbcsr_mm.F:301 :: Using a non-square number of MPI ranks ***
 *** might lead to poor performance. Used ranks: 128 Suggested: 121 256  ***

 -------------------------------------------------------------------------------
 -                                                                             -
 -                      DBCSR MESSAGE PASSING PERFORMANCE                      -
 -                                                                             -
 -------------------------------------------------------------------------------
 ROUTINE             CALLS      AVE VOLUME [Bytes]
 MP_Bcast               50                     12.
 MP_Allreduce        23640                     27.
 MP_Alltoall         16483                  29853.
 MP_ISend           285264                  49289.
 MP_IRecv           284756                  48831.
 -------------------------------------------------------------------------------

 -------------------------------------------------------------------------------
 -                                                                             -
 -                                DBM STATISTICS                               -
 -                                                                             -
 -------------------------------------------------------------------------------
    M  x    N  x    K                                          COUNT     PERCENT
 -------------------------------------------------------------------------------

 -------------------------------------------------------------------------------
 -                                                                             -
 -                                GRID STATISTICS                              -
 -                                                                             -
 -------------------------------------------------------------------------------
 LP    KERNEL             BACKEND                              COUNT     PERCENT
 5     collocate ortho    CPU                               19450268      25.42%
 5     integrate ortho    CPU                               19136554      25.01%
 6     collocate ortho    CPU                                9938228      12.99%
 6     integrate ortho    CPU                                9777934      12.78%
 4     collocate ortho    CPU                                8871580      11.59%
 4     integrate ortho    CPU                                8728490      11.41%
 0     integrate general  CPU                                 393216       0.51%
 0     collocate general  CPU                                 221184       0.29%
 2     collocate ortho    CPU                                   2560       0.00%
 3     collocate ortho    CPU                                   1536       0.00%
 -------------------------------------------------------------------------------

 MEMORY| Estimated peak process memory [MiB]                                 333

 -------------------------------------------------------------------------------
 ----                             MULTIGRID INFO                            ----
 -------------------------------------------------------------------------------
 count for grid        1:        1287129          cutoff [a.u.]          300.00
 count for grid        2:         980975          cutoff [a.u.]          100.00
 count for grid        3:         793965          cutoff [a.u.]           33.33
 count for grid        4:         536853          cutoff [a.u.]           11.11
 total gridlevel count  :        3598922

 -------------------------------------------------------------------------------
 -                                                                             -
 -                         MESSAGE PASSING PERFORMANCE                         -
 -                                                                             -
 -------------------------------------------------------------------------------

 ROUTINE             CALLS      AVE VOLUME [Bytes]
 MP_Group                4
 MP_Bcast             8729                  18413.
 MP_Allreduce        23439                    506.
 MP_Sync               748
 MP_Alltoall          2556                1805831.
 MP_SendRecv         32512                  11544.
 MP_ISendRecv        30988                  11544.
 MP_Wait             46092
 MP_comm_split         244
 MP_ISend            27368                  78004.
 MP_IRecv            27308                  78172.
 MP_Write_All            6                 355816.
 -------------------------------------------------------------------------------


 -------------------------------------------------------------------------------
 -                                                                             -
 -                           R E F E R E N C E S                               -
 -                                                                             -
 -------------------------------------------------------------------------------
 
 CP2K version 2024.3, the CP2K developers group (2024).
 CP2K is freely available from https://www.cp2k.org/ .
 
 T. D. Kuehne, M. Iannuzzi, M. Del Ben, V. V. Rybkin, P. Seewald, F. Stein, T. 
 Laino, R. Z. Khaliullin, O. Schuett, F. Schiffmann, D. Golze, J. Wilhelm, S. 
 Chulkov, M. H. Bani-Hashemian, V. Weber, U. Borstnik, M. Taillefumier, A. S. 
 Jakobovits, A. Lazzaro, H. Pabst, T. Mueller, R. Schade, M. Guidon, S. 
 Andermatt, N. Holmberg, G. K. Schenter, A. Hehn, A. Bussy, F. Belleflamme, G. 
 Tabacchi, A. Gloess, M. Lass, I. Bethune, C. J. Mundy, C. Plessl, M. Watkins, 
 J. VandeVondele, M. Krack, J. Hutter.
 J. Chem. Phys. 152, 194103 (2020).
 CP2K: An electronic structure and molecular dynamics software package - 
 Quickstep: Efficient and accurate electronic structure calculations.
 https://doi.org/10.1063/5.0007045

 O. Schuett, P. Messmer, J. Hutter, J. VandeVondele.
 Electronic Structure Calculations on Graphics Processing Units, 173-190 (2016).
 GPU-Accelerated Sparse Matrix-Matrix Multiplication for Linear Scaling Density 
 Functional Theory.
 https://doi.org/10.1002/9781118670712.ch8

 A. Heinecke, G. Henry, M. Hutchinson, H. Pabst.
 Proceedings of Intl. Supercomputing Conference, 981-991 (2016).
 LIBXSMM: Accelerating Small Matrix Multiplications by Runtime Code Generation.
 https://doi.org/10.1109/SC.2016.83

 J. Hutter, M. Iannuzzi, F. Schiffmann, J. VandeVondele.
 WIREs Comput Mol Sci. 4, 15-25 (2014).
 CP2K: atomistic simulations of condensed matter systems.
 https://doi.org/10.1002/wcms.1159

 U. Borstnik, J. VandeVondele, V. Weber, J. Hutter.
 Parallel Comput. 40, 47-58 (2014).
 Sparse matrix multiplication: The distributed block-compressed sparse row 
 library.
 https://doi.org/10.1016/j.parco.2014.03.012

 A. Marek, V. Blum, R. Johanni, V. Havu, B. Lang, T. Auckenthaler, A. Heinecke, 
 H. Bungartz, H. Lederer.
 J. Phys. Condens. Matter 26, 213201 (2014).
 The ELPA library: scalable parallel eigenvalue solutions for electronic 
 structure theory and computational science.
 https://doi.org/10.1088/0953-8984/26/21/213201

 J. VandeVondele, J. Hutter.
 J. Chem. Phys. 127, 114105 (2007).
 Gaussian basis sets for accurate calculations on molecular systems in gas and 
 condensed phases.
 https://doi.org/10.1063/1.2770708

 J. VandeVondele, M. Krack, F. Mohamed, M. Parrinello, T. Chassaing, J. Hutter.
 Comput. Phys. Commun. 167, 103-128 (2005).
 QUICKSTEP: Fast and accurate density functional calculations using a mixed 
 Gaussian and plane waves approach.
 https://doi.org/10.1016/j.cpc.2004.12.014

 M. Krack.
 Theor. Chem. Acc. 114, 145-152 (2005).
 Pseudopotentials for H to Kr optimized for gradient-corrected 
 exchange-correlation functionals.
 https://doi.org/10.1007/s00214-005-0655-y

 M. Frigo, S. G. Johnson.
 Proc. IEEE 93, 216-231 (2005).
 The design and implementation of FFTW3.
 https://doi.org/10.1109/JPROC.2004.840301

 J. VandeVondele, J. Hutter.
 J. Chem. Phys. 118, 4365-4369 (2003).
 An efficient orbital transformation method for electronic structure 
 calculations.
 https://doi.org/10.1063/1.1543154

 C. Hartwigsen, S. Goedecker, J. Hutter.
 Phys. Rev. B 58, 3641-3662 (1998).
 Relativistic separable dual-space Gaussian pseudopotentials from H to Rn.
 https://doi.org/10.1103/PhysRevB.58.3641

 S. L. Dudarev, G. A. Botton, S. Y. Savrasov, C. J. Humphreys, A. P. Sutton.
 Phys. Rev. B 57, 1505-1509 (1998).
 Electron-energy-loss spectra and the structural stability of nickel oxide: An 
 LSDA+U study.
 https://doi.org/10.1103/PhysRevB.57.1505

 G. Lippert, J. Hutter, M. Parrinello.
 Mol. Phys. 92, 477-487 (1997).
 A hybrid Gaussian and plane wave density functional scheme.
 https://doi.org/10.1080/002689797170220

 S. L. Dudarev, D. N. Manh, A. P. Sutton.
 Philos. Mag. B 75, 613-628 (1997).
 Effect of Mott-Hubbard correlations on the electronic structure and structural 
 stability of uranium dioxide.
 https://doi.org/10.1080/13642819708202343

 S. Goedecker, M. Teter, J. Hutter.
 Phys. Rev. B 54, 1703-1710 (1996).
 Separable dual-space Gaussian pseudopotentials.
 https://doi.org/10.1103/PhysRevB.54.1703

 J. P. Perdew, K. Burke, M. Ernzerhof.
 Phys. Rev. Lett. 77, 3865-3868 (1996).
 Generalized gradient approximation made simple.
 https://doi.org/10.1103/PhysRevLett.77.3865


 -------------------------------------------------------------------------------
 -                                                                             -
 -                                T I M I N G                                  -
 -                                                                             -
 -------------------------------------------------------------------------------
 SUBROUTINE                       CALLS  ASD         SELF TIME        TOTAL TIME
                                MAXIMUM       AVERAGE  MAXIMUM  AVERAGE  MAXIMUM
 CP2K                                 1  1.0    0.106    0.118  103.135  103.140
 qs_energies                          1  2.0    0.006    0.009  102.178  102.184
 scf_env_do_scf                       1  3.0    0.004    0.007   90.933   90.935
 scf_env_do_scf_inner_loop           61  4.0    0.007    0.018   87.694   87.757
 qs_ks_update_qs_env                 63  5.0    0.001    0.002   43.130   43.239
 rebuild_ks_matrix                   61  6.0    0.002    0.002   43.045   43.154
 qs_ks_build_kohn_sham_matrix        61  7.0    0.017    0.021   43.043   43.153
 sum_up_and_integrate                61  8.0    0.005    0.007   26.991   27.003
 integrate_v_rspace                 122  9.0    0.005    0.007   26.914   26.955
 qs_rho_update_rho_low               62  5.0    0.001    0.002   25.342   25.351
 calculate_rho_elec                 124  6.0    0.046    0.053   25.341   25.350
 dbcsr_multiply_generic            4529  9.2    0.166    0.174   21.418   21.946
 qs_scf_new_mos                      61  5.0    0.000    0.001   20.886   21.042
 qs_scf_loop_do_ot                   61  6.0    0.001    0.001   20.885   21.042
 grid_integrate_task_list           122 10.0   19.493   20.342   19.493   20.342
 ot_scf_mini                         61  7.0    0.002    0.004   19.548   19.663
 grid_collocate_task_list           124  7.0   18.318   19.103   18.318   19.103
 multiply_cannon                   4529 10.2    0.722    0.773   14.252   16.422
 fft_wrap_pw1pw2                   2044 10.3    0.041    0.050   13.481   15.167
 multiply_cannon_loop              4529 11.2    0.320    0.334   12.341   14.250
 fft_wrap_pw1pw2_300               1294 11.8    0.509    0.558   12.516   14.211
 qs_vxc_create                       61  8.0    0.002    0.004   12.853   12.953
 xc_vxc_pw_create                    61  9.0    0.234    0.297   12.851   12.952
 fft3d_ps                          2044 12.3    4.030    4.441   10.611   12.575
 ot_mini                            191  6.6    0.006    0.008   10.984   11.129
 xc_pw_derive                       732 11.0    0.006    0.007    8.690   10.187
 scf_post_calculation_gpw             1  3.0    0.004    0.007    9.257    9.262
 multiply_cannon_multrec          72464 12.2    5.783    9.133    5.798    9.149
 mp_waitall_1                    541252 13.3    6.186    8.953    6.186    8.953
 qs_ot_get_p                        260  6.9    0.003    0.004    8.391    8.667
 mp_alltoall_z22v                  2044 14.3    5.454    8.510    5.454    8.510
 qs_ot_get_derivative               188  8.3    0.001    0.001    7.950    8.031
 multiply_cannon_metrocomm3       72464 12.2    0.175    0.185    4.288    7.630
 density_rs2pw                      124  7.0    0.010    0.011    6.334    7.117
 xc_rho_set_and_dset_create          61 10.0    0.210    0.334    6.663    7.024
 xc_pw_divergence                   122 10.0    0.003    0.003    5.751    6.933
 qs_ot_p2m_diag                     240  8.0    0.051    0.069    6.381    6.422
 potential_pw2rs                    122 10.0    0.010    0.012    6.196    6.245
 cp_dbcsr_syevd                     240  9.0    0.070    0.079    5.410    5.414
 qs_ot_get_derivative_diag          172  9.3    0.004    0.005    5.231    5.312
 make_lumo_gpw                        1  4.0    0.002    0.002    5.134    5.135
 yz_to_x                            745 13.4    0.317    0.442    3.118    5.128
 ot_eigensolver                       2  5.0    0.003    0.004    5.114    5.116
 cp_fm_redistribute_end             244 10.9    2.546    5.018    2.563    5.029
 cp_fm_diag_elpa                    118 10.9    0.001    0.003    4.927    4.945
 cp_fm_diag_elpa_base               118 11.9    2.352    4.715    2.365    4.748
 make_m2s                          9058 10.2    0.124    0.133    4.397    4.622
 transfer_pw2rs                     490 11.0    0.007    0.008    4.568    4.588
 transfer_rs2pw                     514  7.9    0.009    0.012    3.767    4.560
 mp_waitany                       12088 11.4    3.136    4.228    3.136    4.228
 x_to_yz                            799 13.7    0.530    0.695    3.147    3.977
 make_images                       9058 11.2    0.242    0.260    3.558    3.747
 transfer_pw2rs_300                 124 11.9    1.557    1.652    3.164    3.339
 mp_sum_l                         21980 10.1    1.897    3.293    1.897    3.293
 transfer_rs2pw_300                 130  8.9    0.921    1.233    2.439    3.258
 write_available_results              1  4.0    0.002    0.004    3.200    3.203
 init_scf_loop                        2  4.0    0.003    0.005    3.198    3.203
 write_mo_free_results                1  5.0    0.143    0.147    3.160    3.163
 apply_preconditioner_dbcsr         196  9.3    0.001    0.001    2.436    2.719
 apply_single                       196 10.3    0.001    0.001    2.435    2.717
 mp_alltoall_d11v                  3705 11.6    1.891    2.651    1.891    2.651
 ot_diis_step                        61  9.0    0.013    0.015    2.472    2.473
 multiply_cannon_metrocomm4       67935 12.2    0.173    0.178    0.825    2.427
 mp_irecv_dv                     150617 13.2    0.732    2.423    0.732    2.423
 xc_functional_eval                  61 11.0    0.001    0.002    1.957    2.260
 pbe_lsd_eval                        61 12.0    1.956    2.258    1.956    2.258
 -------------------------------------------------------------------------------

 The number of warnings for this run is : 3
 
 -------------------------------------------------------------------------------
  **** **** ******  **  PROGRAM ENDED AT                 2025-06-17 07:51:49.577
 ***** ** ***  *** **   PROGRAM RAN ON                                 nid002524
 **    ****   ******    PROGRAM RAN BY                                    cahart
 ***** **    ** ** **   PROGRAM PROCESS ID                                259916
  **** **  *******  **  PROGRAM STOPPED IN /mnt/lustre/a2fs-work2/work/e05/e05/c
                                           ahart/postdoc2/work/group/tio2/anatas
                                           e/cell-441/geo-opt/mp-390/neutral-fro
                                           m-hole/pbe-u-o/u-4.5
