 DBCSR| CPU Multiplication driver                                           XSMM (U)
 DBCSR| Multrec recursion limit                                              512 (U)
 DBCSR| Multiplication stack size                                           1000 (D)
 DBCSR| Maximum elements for images                                    UNLIMITED (U)
 DBCSR| Multiplicative factor virtual images                                   1 (U)
 DBCSR| Use multiplication densification                                       T (D)
 DBCSR| Multiplication size stacks                                             3 (U)
 DBCSR| Use memory pool for CPU allocation                                     F (U)
 DBCSR| Number of 3D layers                                               SINGLE (U)
 DBCSR| Use MPI memory allocation                                              F (U)
 DBCSR| Use RMA algorithm                                                      F (U)
 DBCSR| Use Communication thread                                               T (U)
 DBCSR| Communication thread load                                             87 (D)
 DBCSR| MPI: My process id                                                     0
 DBCSR| MPI: Number of processes                                             128
 DBCSR| OMP: Current number of threads                                         1
 DBCSR| OMP: Max number of threads                                             1
 DBCSR| Split modifier for TAS multiplication algorithm                  1.0E+00 (U)


  **** **** ******  **  PROGRAM STARTED AT               2025-06-16 15:59:15.678
 ***** ** ***  *** **   PROGRAM STARTED ON                             nid002288
 **    ****   ******    PROGRAM STARTED BY                                cahart
 ***** **    ** ** **   PROGRAM PROCESS ID                                253006
  **** **  *******  **  PROGRAM STARTED IN /mnt/lustre/a2fs-work2/work/e05/e05/c
                                           ahart/postdoc2/work/group/tio2/anatas
                                           e/cell-441/geo-opt/mp-390/hole/from-n
                                           eutral/pbe-u-o/u-7.0

 CP2K| version string:                                       CP2K version 2024.3
 CP2K| source code revision number:                                  git:6712648
 CP2K| cp2kflags: omp libint fftw3 libxc libgrpp elpa parallel scalapack cosma x
 CP2K|            smm plumed2 spglib mkl sirius libvori libbqb libvdwxc hdf5
 CP2K| is freely available from                            https://www.cp2k.org/
 CP2K| Program compiled at                       Thu 12 Sep 2024 10:20:47 AM BST
 CP2K| Program compiled on                                                  ln04
 CP2K| Program compiled for                                                local
 CP2K| Data directory path    /mnt/lustre/a2fs-work1/work/y07/shared/apps/core/c
 CP2K| Input file name                                                 input.inp

 GLOBAL| Force Environment number                                              1
 GLOBAL| Basis set file name                                        BASIS_MOLOPT
 GLOBAL| Potential file name                                      GTH_POTENTIALS
 GLOBAL| MM Potential file name                                     MM_POTENTIAL
 GLOBAL| Coordinate file name                                         system.xyz
 GLOBAL| Method name                                                        CP2K
 GLOBAL| Project name                                                       tio2
 GLOBAL| Run type                                                        GEO_OPT
 GLOBAL| FFT library                                                       FFTW3
 GLOBAL| Diagonalization library                                            ELPA
 GLOBAL| DGEMM library                                                      BLAS
 GLOBAL| Minimum number of eigenvectors for ELPA usage                        16
 GLOBAL| Orthonormality check for eigenvectors                          DISABLED
 GLOBAL| Matrix multiplication library                                     COSMA
 GLOBAL| All-to-all communication in single precision                          F
 GLOBAL| FFTs using library dependent lengths                                  F
 GLOBAL| Grid backend                                                       AUTO
 GLOBAL| Global print level                                               MEDIUM
 GLOBAL| MPI I/O enabled                                                       T
 GLOBAL| Total number of message passing processes                           128
 GLOBAL| Number of threads for this process                                    1
 GLOBAL| This output is from process                                           0
 GLOBAL| Stack size for threads created by OpenMP (OMP_STACKSIZE)        default
 GLOBAL| CPU model name                          AMD EPYC 7742 64-Core Processor
 GLOBAL| CPUID                                                              1002

 MEMORY| system memory details [Kb]
 MEMORY|                        rank 0           min           max       average
 MEMORY| MemTotal            263341976     263341976     263341976     263341976
 MEMORY| MemFree             236008968     236008968     236008968     236008968
 MEMORY| Buffers                     0             0             0             0
 MEMORY| Cached                1589020       1589020       1589020       1589020
 MEMORY| Slab                  5185904       5185904       5185904       5185904
 MEMORY| SReclaimable           114908        114908        114908        114908
 MEMORY| MemLikelyFree       237712896     237712896     237712896     237712896


 *** Fundamental physical constants (SI units) ***

 *** Literature: B. J. Mohr and B. N. Taylor,
 ***             CODATA recommended values of the fundamental physical
 ***             constants: 2006, Web Version 5.1
 ***             http://physics.nist.gov/constants

 Speed of light in vacuum [m/s]                             2.99792458000000E+08
 Magnetic constant or permeability of vacuum [N/A**2]       1.25663706143592E-06
 Electric constant or permittivity of vacuum [F/m]          8.85418781762039E-12
 Planck constant (h) [J*s]                                  6.62606896000000E-34
 Planck constant (h-bar) [J*s]                              1.05457162825177E-34
 Elementary charge [C]                                      1.60217648700000E-19
 Electron mass [kg]                                         9.10938215000000E-31
 Electron g factor [ ]                                     -2.00231930436220E+00
 Proton mass [kg]                                           1.67262163700000E-27
 Fine-structure constant                                    7.29735253760000E-03
 Rydberg constant [1/m]                                     1.09737315685270E+07
 Avogadro constant [1/mol]                                  6.02214179000000E+23
 Boltzmann constant [J/K]                                   1.38065040000000E-23
 Atomic mass unit [kg]                                      1.66053878200000E-27
 Bohr radius [m]                                            5.29177208590000E-11

 *** Conversion factors ***

 [u] -> [a.u.]                                              1.82288848426455E+03
 [Angstrom] -> [Bohr] = [a.u.]                              1.88972613288564E+00
 [a.u.] = [Bohr] -> [Angstrom]                              5.29177208590000E-01
 [a.u.] -> [s]                                              2.41888432650478E-17
 [a.u.] -> [fs]                                             2.41888432650478E-02
 [a.u.] -> [J]                                              4.35974393937059E-18
 [a.u.] -> [N]                                              8.23872205491840E-08
 [a.u.] -> [K]                                              3.15774647902944E+05
 [a.u.] -> [kJ/mol]                                         2.62549961709828E+03
 [a.u.] -> [kcal/mol]                                       6.27509468713739E+02
 [a.u.] -> [Pa]                                             2.94210107994716E+13
 [a.u.] -> [bar]                                            2.94210107994716E+08
 [a.u.] -> [atm]                                            2.90362800883016E+08
 [a.u.] -> [eV]                                             2.72113838565563E+01
 [a.u.] -> [Hz]                                             6.57968392072181E+15
 [a.u.] -> [1/cm] (wave numbers)                            2.19474631370540E+05
 [a.u./Bohr**2] -> [1/cm]                                   5.14048714338585E+03
 

 CELL_TOP| Volume [angstrom^3]:                                      2198.132028
 CELL_TOP| Vector a [angstrom    15.120     0.000     0.000   |a| =    15.120000
 CELL_TOP| Vector b [angstrom     0.000    15.120     0.000   |b| =    15.120000
 CELL_TOP| Vector c [angstrom     0.000     0.000     9.615   |c| =     9.615020
 CELL_TOP| Angle (b,c), alpha [degree]:                                90.000000
 CELL_TOP| Angle (a,c), beta  [degree]:                                90.000000
 CELL_TOP| Angle (a,b), gamma [degree]:                                90.000000
 CELL_TOP| Requested initial symmetry:                       MONOCLINIC_GAMMA_AB
 CELL_TOP| Numerically orthorhombic:                                         YES
 CELL_TOP| Periodicity                                                       XYZ

 *** WARNING in atoms_input.F:123 :: Overwriting coordinates. Active    ***
 *** coordinates read from &COORD section. Active coordinates READ from ***
 *** &COORD section                                                     ***


 GENERATE|  Preliminary Number of Bonds generated:                             0
 GENERATE|  Achieved consistency in connectivity generation.

 CELL| Volume [angstrom^3]:                                          2198.132028
 CELL| Vector a [angstrom]:      15.120     0.000     0.000   |a| =    15.120000
 CELL| Vector b [angstrom]:       0.000    15.120     0.000   |b| =    15.120000
 CELL| Vector c [angstrom]:       0.000     0.000     9.615   |c| =     9.615020
 CELL| Angle (b,c), alpha [degree]:                                    90.000000
 CELL| Angle (a,c), beta  [degree]:                                    90.000000
 CELL| Angle (a,b), gamma [degree]:                                    90.000000
 CELL| Requested initial symmetry:                           MONOCLINIC_GAMMA_AB
 CELL| Numerically orthorhombic:                                             YES
 CELL| Periodicity                                                           XYZ

 CELL_REF| Volume [angstrom^3]:                                      2198.132028
 CELL_REF| Vector a [angstrom    15.120     0.000     0.000   |a| =    15.120000
 CELL_REF| Vector b [angstrom     0.000    15.120     0.000   |b| =    15.120000
 CELL_REF| Vector c [angstrom     0.000     0.000     9.615   |c| =     9.615020
 CELL_REF| Angle (b,c), alpha [degree]:                                90.000000
 CELL_REF| Angle (a,c), beta  [degree]:                                90.000000
 CELL_REF| Angle (a,b), gamma [degree]:                                90.000000
 CELL_REF| Requested initial symmetry:                       MONOCLINIC_GAMMA_AB
 CELL_REF| Numerically orthorhombic:                                         YES
 CELL_REF| Periodicity                                                       XYZ

 *******************************************************************************
 *******************************************************************************
 **                                                                           **
 **     #####                         ##              ##                      **
 **    ##   ##            ##          ##              ##                      **
 **   ##     ##                       ##            ######                    **
 **   ##     ##  ##   ##  ##   #####  ##  ##   ####   ##    #####    #####    **
 **   ##     ##  ##   ##  ##  ##      ## ##   ##      ##   ##   ##  ##   ##   **
 **   ##  ## ##  ##   ##  ##  ##      ####     ###    ##   ######   ######    **
 **    ##  ###   ##   ##  ##  ##      ## ##      ##   ##   ##       ##        **
 **     #######   #####   ##   #####  ##  ##  ####    ##    #####   ##        **
 **           ##                                                    ##        **
 **                                                                           **
 **                                                ... make the atoms dance   **
 **                                                                           **
 **            Copyright (C) by CP2K developers group (2000-2024)             **
 **                      J. Chem. Phys. 152, 194103 (2020)                    **
 **                                                                           **
 *******************************************************************************

 DFT| Spin unrestricted (spin-polarized) Kohn-Sham calculation               UKS
 DFT| Multiplicity                                                             2
 DFT| Number of spin states                                                    2
 DFT| Charge                                                                   1
 DFT| Self-interaction correction (SIC)                                       NO
 DFT| Cutoffs: density                                              1.000000E-10
 DFT|          gradient                                             1.000000E-10
 DFT|          tau                                                  1.000000E-10
 DFT|          cutoff_smoothing_range                               0.000000E+00
 DFT| XC density smoothing                                                  NONE
 DFT| XC derivatives                                                          PW

 DFT+U| Method                                                          MULLIKEN
 DFT+U| Check atomic kind information for details

 FUNCTIONAL| PBE:
 FUNCTIONAL| J.P.Perdew, K.Burke, M.Ernzerhof, Phys. Rev. Letter, vol. 77, n 18,
 FUNCTIONAL|  pp. 3865-3868, (1996) {spin polarized}                            


 QS| Method:                                                                 GPW
 QS| Density plane wave grid type                        NON-SPHERICAL FULLSPACE
 QS| Number of grid levels:                                                    4
 QS| Density cutoff [a.u.]:                                                300.0
 QS| Multi grid cutoff [a.u.]: 1) grid level                               300.0
 QS|                           2) grid level                               100.0
 QS|                           3) grid level                                33.3
 QS|                           4) grid level                                11.1
 QS| Grid level progression factor:                                          3.0
 QS| Relative density cutoff [a.u.]:                                        20.0
 QS| Interaction thresholds: eps_pgf_orb:                                1.0E-06
 QS|                         eps_filter_matrix:                          0.0E+00
 QS|                         eps_core_charge:                            1.0E-14
 QS|                         eps_rho_gspace:                             1.0E-12
 QS|                         eps_rho_rspace:                             1.0E-12
 QS|                         eps_gvg_rspace:                             1.0E-06
 QS|                         eps_ppl:                                    1.0E-02
 QS|                         eps_ppnl:                                   1.0E-08


 ATOMIC KIND INFORMATION

  1. Atomic kind: Ti                                    Number of atoms:      64

     Orbital Basis Set                                    DZVP-MOLOPT-SR-GTH-q12

       Number of orbital shell sets:                                           1
       Number of orbital shells:                                               8
       Number of primitive Cartesian functions:                                6
       Number of Cartesian basis functions:                                   31
       Number of spherical basis functions:                                   26
       Norm type:                                                              2

       Normalised Cartesian orbitals:

                        Set   Shell   Orbital            Exponent    Coefficient

                          1       1    2s                7.884570       0.015554
                                                         3.894698       0.963603
                                                         1.513589      -0.631435
                                                         0.596768      -0.343022
                                                         0.222222      -0.006534
                                                         0.077078       0.007652

                          1       2    3s                7.884570      -0.009340
                                                         3.894698       0.212624
                                                         1.513589      -0.258368
                                                         0.596768      -0.226206
                                                         0.222222       0.039438
                                                         0.077078       0.107179

                          1       3    4s                7.884570       0.276563
                                                         3.894698       0.105452
                                                         1.513589       0.085149
                                                         0.596768       0.882541
                                                         0.222222      -0.696223
                                                         0.077078       0.156638

                          1       4    3px               7.884570      -2.034794
                                                         3.894698       0.782008
                                                         1.513589       1.253903
                                                         0.596768       0.347823
                                                         0.222222       0.016778
                                                         0.077078      -0.000433
                          1       4    3py               7.884570      -2.034794
                                                         3.894698       0.782008
                                                         1.513589       1.253903
                                                         0.596768       0.347823
                                                         0.222222       0.016778
                                                         0.077078      -0.000433
                          1       4    3pz               7.884570      -2.034794
                                                         3.894698       0.782008
                                                         1.513589       1.253903
                                                         0.596768       0.347823
                                                         0.222222       0.016778
                                                         0.077078      -0.000433

                          1       5    4px               7.884570       0.376572
                                                         3.894698      -0.182875
                                                         1.513589      -0.474776
                                                         0.596768      -0.081757
                                                         0.222222       0.064432
                                                         0.077078       0.047279
                          1       5    4py               7.884570       0.376572
                                                         3.894698      -0.182875
                                                         1.513589      -0.474776
                                                         0.596768      -0.081757
                                                         0.222222       0.064432
                                                         0.077078       0.047279
                          1       5    4pz               7.884570       0.376572
                                                         3.894698      -0.182875
                                                         1.513589      -0.474776
                                                         0.596768      -0.081757
                                                         0.222222       0.064432
                                                         0.077078       0.047279

                          1       6    4dx2              7.884570       3.047350
                                                         3.894698       3.289529
                                                         1.513589       1.060616
                                                         0.596768       0.249930
                                                         0.222222       0.038806
                                                         0.077078       0.002319
                          1       6    4dxy              7.884570       5.278165
                                                         3.894698       5.697631
                                                         1.513589       1.837041
                                                         0.596768       0.432892
                                                         0.222222       0.067214
                                                         0.077078       0.004017
                          1       6    4dxz              7.884570       5.278165
                                                         3.894698       5.697631
                                                         1.513589       1.837041
                                                         0.596768       0.432892
                                                         0.222222       0.067214
                                                         0.077078       0.004017
                          1       6    4dy2              7.884570       3.047350
                                                         3.894698       3.289529
                                                         1.513589       1.060616
                                                         0.596768       0.249930
                                                         0.222222       0.038806
                                                         0.077078       0.002319
                          1       6    4dyz              7.884570       5.278165
                                                         3.894698       5.697631
                                                         1.513589       1.837041
                                                         0.596768       0.432892
                                                         0.222222       0.067214
                                                         0.077078       0.004017
                          1       6    4dz2              7.884570       3.047350
                                                         3.894698       3.289529
                                                         1.513589       1.060616
                                                         0.596768       0.249930
                                                         0.222222       0.038806
                                                         0.077078       0.002319

                          1       7    5dx2              7.884570      -2.119015
                                                         3.894698      -1.237751
                                                         1.513589      -0.746777
                                                         0.596768      -0.071514
                                                         0.222222       0.004086
                                                         0.077078       0.017595
                          1       7    5dxy              7.884570      -3.670241
                                                         3.894698      -2.143848
                                                         1.513589      -1.293455
                                                         0.596768      -0.123865
                                                         0.222222       0.007077
                                                         0.077078       0.030475
                          1       7    5dxz              7.884570      -3.670241
                                                         3.894698      -2.143848
                                                         1.513589      -1.293455
                                                         0.596768      -0.123865
                                                         0.222222       0.007077
                                                         0.077078       0.030475
                          1       7    5dy2              7.884570      -2.119015
                                                         3.894698      -1.237751
                                                         1.513589      -0.746777
                                                         0.596768      -0.071514
                                                         0.222222       0.004086
                                                         0.077078       0.017595
                          1       7    5dyz              7.884570      -3.670241
                                                         3.894698      -2.143848
                                                         1.513589      -1.293455
                                                         0.596768      -0.123865
                                                         0.222222       0.007077
                                                         0.077078       0.030475
                          1       7    5dz2              7.884570      -2.119015
                                                         3.894698      -1.237751
                                                         1.513589      -0.746777
                                                         0.596768      -0.071514
                                                         0.222222       0.004086
                                                         0.077078       0.017595

                          1       8    5fx3              7.884570      -0.342058
                                                         3.894698       0.375798
                                                         1.513589      -0.706469
                                                         0.596768      -0.229994
                                                         0.222222      -0.012723
                                                         0.077078       0.003932
                          1       8    5fx2y             7.884570      -0.764866
                                                         3.894698       0.840310
                                                         1.513589      -1.579712
                                                         0.596768      -0.514282
                                                         0.222222      -0.028450
                                                         0.077078       0.008792
                          1       8    5fx2z             7.884570      -0.764866
                                                         3.894698       0.840310
                                                         1.513589      -1.579712
                                                         0.596768      -0.514282
                                                         0.222222      -0.028450
                                                         0.077078       0.008792
                          1       8    5fxy2             7.884570      -0.764866
                                                         3.894698       0.840310
                                                         1.513589      -1.579712
                                                         0.596768      -0.514282
                                                         0.222222      -0.028450
                                                         0.077078       0.008792
                          1       8    5fxyz             7.884570      -1.324787
                                                         3.894698       1.455460
                                                         1.513589      -2.736142
                                                         0.596768      -0.890763
                                                         0.222222      -0.049276
                                                         0.077078       0.015229
                          1       8    5fxz2             7.884570      -0.764866
                                                         3.894698       0.840310
                                                         1.513589      -1.579712
                                                         0.596768      -0.514282
                                                         0.222222      -0.028450
                                                         0.077078       0.008792
                          1       8    5fy3              7.884570      -0.342058
                                                         3.894698       0.375798
                                                         1.513589      -0.706469
                                                         0.596768      -0.229994
                                                         0.222222      -0.012723
                                                         0.077078       0.003932
                          1       8    5fy2z             7.884570      -0.764866
                                                         3.894698       0.840310
                                                         1.513589      -1.579712
                                                         0.596768      -0.514282
                                                         0.222222      -0.028450
                                                         0.077078       0.008792
                          1       8    5fyz2             7.884570      -0.764866
                                                         3.894698       0.840310
                                                         1.513589      -1.579712
                                                         0.596768      -0.514282
                                                         0.222222      -0.028450
                                                         0.077078       0.008792
                          1       8    5fz3              7.884570      -0.342058
                                                         3.894698       0.375798
                                                         1.513589      -0.706469
                                                         0.596768      -0.229994
                                                         0.222222      -0.012723
                                                         0.077078       0.003932

       Atomic covalent radius [Angstrom]:                                  1.320

       Atomic van der Waals radius [Angstrom]:                             1.760

     GTH Potential information for                                   GTH-PBE-q12

       Description:                       Goedecker-Teter-Hutter pseudopotential
                                           Goedecker et al., PRB 54, 1703 (1996)
                                          Hartwigsen et al., PRB 58, 3641 (1998)
                                                      Krack, TCA 114, 145 (2005)

       Gaussian exponent of the core charge distribution:               3.462604
       Electronic configuration (s p d ...):                           4   6   2

       Parameters of the local part of the GTH pseudopotential:

                          rloc        C1          C2          C3          C4
                        0.380000    8.711442   -0.700287

       Parameters of the non-local part of the GTH pseudopotential:

                   l      r(l)      h(i,j,l)

                   0    0.337771    2.575264    3.692971
                                    3.692971   -4.767605
                   1    0.242531   -4.630541    8.870875
                                    8.870875  -10.496161
                   2    0.243317   -9.406653

  2. Atomic kind: O                                     Number of atoms:     128

     Orbital Basis Set                                     DZVP-MOLOPT-SR-GTH-q6

       Number of orbital shell sets:                                           1
       Number of orbital shells:                                               5
       Number of primitive Cartesian functions:                                5
       Number of Cartesian basis functions:                                   14
       Number of spherical basis functions:                                   13
       Norm type:                                                              2

       Normalised Cartesian orbitals:

                        Set   Shell   Orbital            Exponent    Coefficient

                          1       1    2s               10.389228       0.396646
                                                         3.849621       0.208811
                                                         1.388401      -0.301641
                                                         0.496955      -0.274061
                                                         0.162492      -0.033677

                          1       2    3s               10.389228       0.303673
                                                         3.849621       0.240943
                                                         1.388401      -0.313066
                                                         0.496955      -0.043055
                                                         0.162492       0.213991

                          1       3    3px              10.389228      -1.530415
                                                         3.849621      -1.371928
                                                         1.388401      -0.761951
                                                         0.496955      -0.253695
                                                         0.162492      -0.035541
                          1       3    3py              10.389228      -1.530415
                                                         3.849621      -1.371928
                                                         1.388401      -0.761951
                                                         0.496955      -0.253695
                                                         0.162492      -0.035541
                          1       3    3pz              10.389228      -1.530415
                                                         3.849621      -1.371928
                                                         1.388401      -0.761951
                                                         0.496955      -0.253695
                                                         0.162492      -0.035541

                          1       4    4px              10.389228      -0.565392
                                                         3.849621      -0.038231
                                                         1.388401      -0.382373
                                                         0.496955       0.179070
                                                         0.162492       0.122714
                          1       4    4py              10.389228      -0.565392
                                                         3.849621      -0.038231
                                                         1.388401      -0.382373
                                                         0.496955       0.179070
                                                         0.162492       0.122714
                          1       4    4pz              10.389228      -0.565392
                                                         3.849621      -0.038231
                                                         1.388401      -0.382373
                                                         0.496955       0.179070
                                                         0.162492       0.122714

                          1       5    4dx2             10.389228       1.867377
                                                         3.849621       0.670994
                                                         1.388401       1.353441
                                                         0.496955       0.273538
                                                         0.162492       0.006620
                          1       5    4dxy             10.389228       3.234392
                                                         3.849621       1.162195
                                                         1.388401       2.344229
                                                         0.496955       0.473781
                                                         0.162492       0.011466
                          1       5    4dxz             10.389228       3.234392
                                                         3.849621       1.162195
                                                         1.388401       2.344229
                                                         0.496955       0.473781
                                                         0.162492       0.011466
                          1       5    4dy2             10.389228       1.867377
                                                         3.849621       0.670994
                                                         1.388401       1.353441
                                                         0.496955       0.273538
                                                         0.162492       0.006620
                          1       5    4dyz             10.389228       3.234392
                                                         3.849621       1.162195
                                                         1.388401       2.344229
                                                         0.496955       0.473781
                                                         0.162492       0.011466
                          1       5    4dz2             10.389228       1.867377
                                                         3.849621       0.670994
                                                         1.388401       1.353441
                                                         0.496955       0.273538
                                                         0.162492       0.006620

       Atomic covalent radius [Angstrom]:                                  0.730

       Atomic van der Waals radius [Angstrom]:                             1.520

     GTH Potential information for                                    GTH-PBE-q6

       Description:                       Goedecker-Teter-Hutter pseudopotential
                                           Goedecker et al., PRB 54, 1703 (1996)
                                          Hartwigsen et al., PRB 58, 3641 (1998)
                                                      Krack, TCA 114, 145 (2005)

       Gaussian exponent of the core charge distribution:               8.360253
       Electronic configuration (s p d ...):                               2   4

       Parameters of the local part of the GTH pseudopotential:

                          rloc        C1          C2          C3          C4
                        0.244554  -16.667215    2.487311

       Parameters of the non-local part of the GTH pseudopotential:

                   l      r(l)      h(i,j,l)

                   0    0.220956   18.337458
                   1    0.211332

     A DFT+U correction is applied to atoms of this atomic kind:
       Angular quantum momentum number L:                                      1
       U(eff) = (U - J) value in [eV]:                                     7.000


 MOLECULE KIND INFORMATION


 All atoms are their own molecule, skipping detailed information


 TOTAL NUMBERS AND MAXIMUM NUMBERS

  Total number of            - Atomic kinds:                                   2
                             - Atoms:                                        192
                             - Shell sets:                                   192
                             - Shells:                                      1152
                             - Primitive Cartesian functions:               1024
                             - Cartesian basis functions:                   3776
                             - Spherical basis functions:                   3328

  Maximum angular momentum of- Orbital basis functions:                        3
                             - Local part of the GTH pseudopotential:          2
                             - Non-local part of the GTH pseudopotential:      3


 MODULE QUICKSTEP: ATOMIC COORDINATES IN ANGSTROM

   Atom Kind Element         X             Y             Z       Z(eff)     Mass
      1    1 Ti   22      0.001958      0.001949      0.000087  12.0000  47.8670
      2    1 Ti   22      1.886003      1.885998      4.807557  12.0000  47.8670
      3    1 Ti   22      0.001897      1.886055      2.399375  12.0000  47.8670
      4    1 Ti   22      1.886045      0.001907      7.215776  12.0000  47.8670
      5    1 Ti   22      0.002071      3.776014      0.001802  12.0000  47.8670
      6    1 Ti   22      1.886061     13.236347      4.803192  12.0000  47.8670
      7    1 Ti   22     11.352249      1.885997      2.403776  12.0000  47.8670
      8    1 Ti   22      5.667293      0.002070      7.220198  12.0000  47.8670
      9    1 Ti   22      1.886012      3.775885      7.213506  12.0000  47.8670
     10    1 Ti   22      0.001952     13.236309      2.403830  12.0000  47.8670
     11    1 Ti   22      5.667161      1.885749      4.802385  12.0000  47.8670
     12    1 Ti   22     11.352196      0.001896     -0.004374  12.0000  47.8670
     13    1 Ti   22      3.776015      0.002061     -0.001694  12.0000  47.8670
     14    1 Ti   22     13.236349      1.886050      4.811985  12.0000  47.8670
     15    1 Ti   22     13.236312      0.001955      7.211372  12.0000  47.8670
     16    1 Ti   22      3.775882      1.886020      2.401582  12.0000  47.8670
     17    1 Ti   22      1.885757      5.667162      4.812696  12.0000  47.8670
     18    1 Ti   22      0.001901     11.352201      0.004535  12.0000  47.8670
     19    1 Ti   22      0.002071      5.667303      2.394899  12.0000  47.8670
     20    1 Ti   22      1.885993     11.352243      7.211395  12.0000  47.8670
     21    1 Ti   22      0.002068      7.571012      0.008919  12.0000  47.8670
     22    1 Ti   22      1.886027      9.462327      4.805395  12.0000  47.8670
     23    1 Ti   22      7.571142      1.885747      2.408871  12.0000  47.8670
     24    1 Ti   22      9.462209      0.002065      7.213054  12.0000  47.8670
     25    1 Ti   22      1.885741      7.571129      7.206237  12.0000  47.8670
     26    1 Ti   22      0.002065      9.462203      2.402103  12.0000  47.8670
     27    1 Ti   22      9.462323      1.886026      4.809758  12.0000  47.8670
     28    1 Ti   22      7.570996      0.002066     -0.008827  12.0000  47.8670
     29    1 Ti   22      3.775975      3.775974      0.000021  12.0000  47.8670
     30    1 Ti   22     13.236299     13.236304      4.807599  12.0000  47.8670
     31    1 Ti   22     11.352502      5.667166      2.398632  12.0000  47.8670
     32    1 Ti   22      5.667156     11.352499      7.216474  12.0000  47.8670
     33    1 Ti   22     13.236192      3.776008      7.209627  12.0000  47.8670
     34    1 Ti   22      3.776002     13.236193      2.405521  12.0000  47.8670
     35    1 Ti   22      5.667253      5.667254      4.807528  12.0000  47.8670
     36    1 Ti   22     11.352243     11.352247      0.000058  12.0000  47.8670
     37    1 Ti   22     11.352204     13.236353      2.408205  12.0000  47.8670
     38    1 Ti   22      5.667363      3.775768      7.217690  12.0000  47.8670
     39    1 Ti   22      3.775894     11.352234      0.002263  12.0000  47.8670
     40    1 Ti   22     13.236177      5.667295      4.816440  12.0000  47.8670
     41    1 Ti   22      5.667301     13.236178      4.798667  12.0000  47.8670
     42    1 Ti   22     11.352233      3.775887     -0.002131  12.0000  47.8670
     43    1 Ti   22     13.236363     11.352194      7.206962  12.0000  47.8670
     44    1 Ti   22      3.775766      5.667360      2.397373  12.0000  47.8670
     45    1 Ti   22      3.775770      7.570942      0.006377  12.0000  47.8670
     46    1 Ti   22     13.236183      9.462210      4.809293  12.0000  47.8670
     47    1 Ti   22      7.571056      5.667257      2.403716  12.0000  47.8670
     48    1 Ti   22      9.462330     11.352228      7.209115  12.0000  47.8670
     49    1 Ti   22     13.236186      7.570998      7.202492  12.0000  47.8670
     50    1 Ti   22      3.775973      9.462224      2.403793  12.0000  47.8670
     51    1 Ti   22      9.462432      5.667349      4.813943  12.0000  47.8670
     52    1 Ti   22      7.571140     11.352501     -0.005075  12.0000  47.8670
     53    1 Ti   22     11.352230      9.462319      2.405998  12.0000  47.8670
     54    1 Ti   22      5.667247      7.571050      7.211360  12.0000  47.8670
     55    1 Ti   22      5.667362      9.462431      4.801157  12.0000  47.8670
     56    1 Ti   22     11.352499      7.571143      0.005139  12.0000  47.8670
     57    1 Ti   22      9.462229      3.775975      7.211355  12.0000  47.8670
     58    1 Ti   22      7.571006     13.236182      2.412612  12.0000  47.8670
     59    1 Ti   22      7.570929      3.775768     -0.006300  12.0000  47.8670
     60    1 Ti   22      9.462205     13.236192      4.805844  12.0000  47.8670
     61    1 Ti   22      7.571050      7.571060      0.000020  12.0000  47.8670
     62    1 Ti   22      9.462217      9.462222      4.807550  12.0000  47.8670
     63    1 Ti   22      7.570937      9.462435      2.410114  12.0000  47.8670
     64    1 Ti   22      9.462438      7.570935      7.204966  12.0000  47.8670
     65    2 O     8     -0.000450      0.002724      1.978508   6.0000  15.9994
     66    2 O     8      1.884997      1.885397      6.791405   6.0000  15.9994
     67    2 O     8      0.002704      1.885144      4.381676   6.0000  15.9994
     68    2 O     8      1.885545     -0.000380      9.195698   6.0000  15.9994
     69    2 O     8      1.885148      0.002699      5.233506   6.0000  15.9994
     70    2 O     8     -0.000381      1.885544      0.419459   6.0000  15.9994
     71    2 O     8      1.885396      1.885000      2.823708   6.0000  15.9994
     72    2 O     8      0.002719     -0.000451      7.636706   6.0000  15.9994
     73    2 O     8     -0.000373      3.774255      1.967218   6.0000  15.9994
     74    2 O     8      1.885143     13.235562      6.785502   6.0000  15.9994
     75    2 O     8     11.352849      1.885003      4.387554   6.0000  15.9994
     76    2 O     8      5.673559     -0.000278      9.194153   6.0000  15.9994
     77    2 O     8      1.885046      3.774088      5.244774   6.0000  15.9994
     78    2 O     8     -0.000452     13.235553      0.425455   6.0000  15.9994
     79    2 O     8      5.673524      1.884796      2.824810   6.0000  15.9994
     80    2 O     8     11.352707     -0.000383      7.630798   6.0000  15.9994
     81    2 O     8      3.774249     -0.000373      7.647935   6.0000  15.9994
     82    2 O     8     13.235563      1.885145      2.829706   6.0000  15.9994
     83    2 O     8     13.235552     -0.000453      9.189780   6.0000  15.9994
     84    2 O     8      3.774090      1.885050      4.370323   6.0000  15.9994
     85    2 O     8      1.884795      5.673518      6.790269   6.0000  15.9994
     86    2 O     8     -0.000383     11.352708      1.984390   6.0000  15.9994
     87    2 O     8     -0.000278      5.673563      0.420946   6.0000  15.9994
     88    2 O     8      1.885008     11.352846      5.227632   6.0000  15.9994
     89    2 O     8     -0.000278      7.564683      1.982976   6.0000  15.9994
     90    2 O     8      1.885045      9.464104      6.774353   6.0000  15.9994
     91    2 O     8      7.564717      1.884794      4.386553   6.0000  15.9994
     92    2 O     8      9.463947     -0.000373      9.178615   6.0000  15.9994
     93    2 O     8      1.884799      7.564725      5.228561   6.0000  15.9994
     94    2 O     8     -0.000373      9.463954      0.436577   6.0000  15.9994
     95    2 O     8      9.464109      1.885049      2.840853   6.0000  15.9994
     96    2 O     8      7.564681     -0.000278      7.632132   6.0000  15.9994
     97    2 O     8      3.769688      0.002623      1.980809   6.0000  15.9994
     98    2 O     8     13.238660      1.885541      6.791909   6.0000  15.9994
     99    2 O     8      0.002551      5.653702      4.384001   6.0000  15.9994
    100    2 O     8      1.885396     11.353350      9.195234   6.0000  15.9994
    101    2 O     8     13.238726      0.002721      5.232986   6.0000  15.9994
    102    2 O     8      3.769505      1.885713      0.418036   6.0000  15.9994
    103    2 O     8      1.885435      5.653620      2.822553   6.0000  15.9994
    104    2 O     8      0.002704     11.353199      7.637303   6.0000  15.9994
    105    2 O     8     11.353347      1.885396      0.419948   6.0000  15.9994
    106    2 O     8      5.653677      0.002548      5.231096   6.0000  15.9994
    107    2 O     8      5.653631      1.885432      6.792520   6.0000  15.9994
    108    2 O     8     11.353201      0.002703      1.977905   6.0000  15.9994
    109    2 O     8      1.885714      3.769504      9.197044   6.0000  15.9994
    110    2 O     8      0.002723     13.238723      4.382242   6.0000  15.9994
    111    2 O     8      0.002619      3.769691      7.634317   6.0000  15.9994
    112    2 O     8      1.885546     13.238661      2.823273   6.0000  15.9994
    113    2 O     8      3.769717      3.774254      1.970685   6.0000  15.9994
    114    2 O     8     13.238729     13.235545      6.785996   6.0000  15.9994
    115    2 O     8     11.352818      5.653645      4.388704   6.0000  15.9994
    116    2 O     8      5.673543     11.353548      9.194041   6.0000  15.9994
    117    2 O     8     13.238647      3.774248      5.244257   6.0000  15.9994
    118    2 O     8      3.769693     13.235655      0.423033   6.0000  15.9994
    119    2 O     8      5.673199      5.653911      2.823719   6.0000  15.9994
    120    2 O     8     11.352856     11.353341      7.631327   6.0000  15.9994
    121    2 O     8     11.353199     13.235563      0.425939   6.0000  15.9994
    122    2 O     8      5.653946      3.774008      5.241529   6.0000  15.9994
    123    2 O     8      3.774091     11.353297      7.648600   6.0000  15.9994
    124    2 O     8     13.235718      5.653673      2.827352   6.0000  15.9994
    125    2 O     8      5.653689     13.235720      6.787757   6.0000  15.9994
    126    2 O     8     11.353298      3.774092      1.966602   6.0000  15.9994
    127    2 O     8     13.235563     11.353200      9.189256   6.0000  15.9994
    128    2 O     8      3.774008      5.653948      4.373545   6.0000  15.9994
    129    2 O     8      5.653904      5.673194      6.791335   6.0000  15.9994
    130    2 O     8     11.353342     11.352852      1.983812   6.0000  15.9994
    131    2 O     8     13.235659      3.769690      9.192119   6.0000  15.9994
    132    2 O     8      3.774252     13.238646      4.370930   6.0000  15.9994
    133    2 O     8     11.353547      5.673530      0.421066   6.0000  15.9994
    134    2 O     8      5.653625     11.352813      5.226397   6.0000  15.9994
    135    2 O     8      3.774250      3.769715      7.644374   6.0000  15.9994
    136    2 O     8     13.235549     13.238728      2.829226   6.0000  15.9994
    137    2 O     8     13.238661     11.352701      5.227107   6.0000  15.9994
    138    2 O     8      3.769475      5.673185      0.419655   6.0000  15.9994
    139    2 O     8      5.673558     13.238553      2.824710   6.0000  15.9994
    140    2 O     8     11.352538      3.769510      7.629420   6.0000  15.9994
    141    2 O     8      3.769507     11.352541      1.985725   6.0000  15.9994
    142    2 O     8     13.238553      5.673557      6.790400   6.0000  15.9994
    143    2 O     8     11.352704     13.238660      4.388061   6.0000  15.9994
    144    2 O     8      5.673179      3.769473      9.195397   6.0000  15.9994
    145    2 O     8      3.769467      7.565043      1.984173   6.0000  15.9994
    146    2 O     8     13.238651      9.463948      6.774866   6.0000  15.9994
    147    2 O     8      7.565049      5.653918      4.387612   6.0000  15.9994
    148    2 O     8      9.464102     11.353295      9.178020   6.0000  15.9994
    149    2 O     8     13.238553      7.564680      5.228437   6.0000  15.9994
    150    2 O     8      3.769716      9.463952      0.432996   6.0000  15.9994
    151    2 O     8      9.464199      5.653914      2.837632   6.0000  15.9994
    152    2 O     8      7.564713     11.353545      7.632267   6.0000  15.9994
    153    2 O     8     11.353294      9.464105      0.437114   6.0000  15.9994
    154    2 O     8      5.653903      7.565049      5.227457   6.0000  15.9994
    155    2 O     8      5.653933      9.464195      6.777493   6.0000  15.9994
    156    2 O     8     11.353544      7.564711      1.982817   6.0000  15.9994
    157    2 O     8      9.463946      3.769713      9.182181   6.0000  15.9994
    158    2 O     8      7.564681     13.238551      4.386670   6.0000  15.9994
    159    2 O     8      7.565051      3.769472      7.630921   6.0000  15.9994
    160    2 O     8      9.463956     13.238651      2.840311   6.0000  15.9994
    161    2 O     8      7.584684      0.002548      1.980221   6.0000  15.9994
    162    2 O     8      9.468800      1.885713      6.793254   6.0000  15.9994
    163    2 O     8      0.002620      9.468613      4.384560   6.0000  15.9994
    164    2 O     8      1.885430      7.584727      9.196319   6.0000  15.9994
    165    2 O     8      9.468609      0.002623      5.230607   6.0000  15.9994
    166    2 O     8      7.584731      1.885433      0.418783   6.0000  15.9994
    167    2 O     8      1.885713      9.468794      2.821894   6.0000  15.9994
    168    2 O     8      0.002547      7.584686      7.634893   6.0000  15.9994
    169    2 O     8      7.584433      3.774009      1.969809   6.0000  15.9994
    170    2 O     8      9.468618     13.235649      6.788287   6.0000  15.9994
    171    2 O     8     11.352538      9.468790      4.389413   6.0000  15.9994
    172    2 O     8      5.673198      7.584464      9.195122   6.0000  15.9994
    173    2 O     8      9.468575      3.774252      5.240758   6.0000  15.9994
    174    2 O     8      7.584680     13.235723      0.423574   6.0000  15.9994
    175    2 O     8      5.673184      9.468818      2.823468   6.0000  15.9994
    176    2 O     8     11.352819      7.584741      7.630148   6.0000  15.9994
    177    2 O     8      3.774006      7.584443      7.645316   6.0000  15.9994
    178    2 O     8     13.235654      9.468611      2.826855   6.0000  15.9994
    179    2 O     8     13.235722      7.584679      9.191543   6.0000  15.9994
    180    2 O     8      3.774252      9.468576      4.374413   6.0000  15.9994
    181    2 O     8      9.468821      5.673187      6.791633   6.0000  15.9994
    182    2 O     8      7.584742     11.352819      1.984940   6.0000  15.9994
    183    2 O     8      7.584464      5.673198      0.419950   6.0000  15.9994
    184    2 O     8      9.468787     11.352536      5.225686   6.0000  15.9994
    185    2 O     8      7.584491      7.565050      1.983870   6.0000  15.9994
    186    2 O     8      9.468586      9.463949      6.778303   6.0000  15.9994
    187    2 O     8      7.565037      9.468821      4.387876   6.0000  15.9994
    188    2 O     8      9.464193      7.584434      9.181229   6.0000  15.9994
    189    2 O     8      9.468819      7.565036      5.227202   6.0000  15.9994
    190    2 O     8      7.584431      9.464197      0.433851   6.0000  15.9994
    191    2 O     8      9.463948      9.468583      2.836804   6.0000  15.9994
    192    2 O     8      7.565040      7.584488      7.631187   6.0000  15.9994



 SCF PARAMETERS         Density guess:                                   RESTART
                        --------------------------------------------------------
                        max_scf:                                              40
                        max_scf_history:                                       0
                        max_diis:                                              4
                        --------------------------------------------------------
                        eps_scf:                                        1.00E-06
                        eps_scf_history:                                0.00E+00
                        eps_diis:                                       1.00E-01
                        eps_eigval:                                     1.00E-05
                        --------------------------------------------------------
                        level_shift [a.u.]:                             0.000000
                        --------------------------------------------------------
                        Outer loop SCF in use 
                        No variables optimised in outer loop
                        eps_scf                                         1.00E-06
                        max_scf                                               60
                        No outer loop optimization
                        step_size                                       5.00E-01

 PW_GRID| Information for grid number                                          1
 PW_GRID| Grid distributed over                                   128 processors
 PW_GRID| Real space group dimensions                                   128    1
 PW_GRID| the grid is blocked:                                                NO
 PW_GRID| Cutoff [a.u.]                                                    300.0
 PW_GRID| spherical cutoff:                                                   NO
 PW_GRID|   Bounds   1           -112     112                Points:         225
 PW_GRID|   Bounds   2           -112     112                Points:         225
 PW_GRID|   Bounds   3            -72      71                Points:         144
 PW_GRID| Volume element (a.u.^3)  0.2035E-02     Volume (a.u.^3)     14833.7304
 PW_GRID| Grid span                                                    FULLSPACE
 PW_GRID|   Distribution                         Average         Max         Min
 PW_GRID|   G-Vectors                            56953.1       57150       56925
 PW_GRID|   G-Rays                                 253.1         254         253
 PW_GRID|   Real Space Points                    56953.1       64800       32400

 PW_GRID| Information for grid number                                          2
 PW_GRID| Number of the reference grid                                         1
 PW_GRID| Grid distributed over                                   128 processors
 PW_GRID| Real space group dimensions                                   128    1
 PW_GRID| the grid is blocked:                                                NO
 PW_GRID| Cutoff [a.u.]                                                    100.0
 PW_GRID| spherical cutoff:                                                   NO
 PW_GRID|   Bounds   1            -67      67                Points:         135
 PW_GRID|   Bounds   2            -67      67                Points:         135
 PW_GRID|   Bounds   3            -40      40                Points:          81
 PW_GRID| Volume element (a.u.^3)  0.1005E-01     Volume (a.u.^3)     14833.7304
 PW_GRID| Grid span                                                    FULLSPACE
 PW_GRID|   Distribution                         Average         Max         Min
 PW_GRID|   G-Vectors                            11533.0       12150       10800
 PW_GRID|   G-Rays                                  85.4          90          80
 PW_GRID|   Real Space Points                    11533.0       21870       10935

 PW_GRID| Information for grid number                                          3
 PW_GRID| Number of the reference grid                                         1
 PW_GRID| Grid distributed over                                   128 processors
 PW_GRID| Real space group dimensions                                     8   16
 PW_GRID| the grid is blocked:                                                NO
 PW_GRID| Cutoff [a.u.]                                                     33.3
 PW_GRID| spherical cutoff:                                                   NO
 PW_GRID|   Bounds   1            -37      37                Points:          75
 PW_GRID|   Bounds   2            -37      37                Points:          75
 PW_GRID|   Bounds   3            -24      23                Points:          48
 PW_GRID| Volume element (a.u.^3)  0.5494E-01     Volume (a.u.^3)     14833.7304
 PW_GRID| Grid span                                                    FULLSPACE
 PW_GRID|   Distribution                         Average         Max         Min
 PW_GRID|   G-Vectors                             2109.4        2475        1725
 PW_GRID|   G-Rays                                  28.1          33          23
 PW_GRID|   Real Space Points                     2109.4        2400        1728

 PW_GRID| Information for grid number                                          4
 PW_GRID| Number of the reference grid                                         1
 PW_GRID| Grid distributed over                                   128 processors
 PW_GRID| Real space group dimensions                                     8   16
 PW_GRID| the grid is blocked:                                                NO
 PW_GRID| Cutoff [a.u.]                                                     11.1
 PW_GRID| spherical cutoff:                                                   NO
 PW_GRID|   Bounds   1            -22      22                Points:          45
 PW_GRID|   Bounds   2            -22      22                Points:          45
 PW_GRID|   Bounds   3            -13      13                Points:          27
 PW_GRID| Volume element (a.u.^3)  0.2713         Volume (a.u.^3)     14833.7304
 PW_GRID| Grid span                                                    FULLSPACE
 PW_GRID|   Distribution                         Average         Max         Min
 PW_GRID|   G-Vectors                              427.1         585         270
 PW_GRID|   G-Rays                                   9.5          13           6
 PW_GRID|   Real Space Points                      427.1         486         270

 POISSON| Solver                                                        PERIODIC
 POISSON| Periodicity                                                        XYZ

 RS_GRID| Information for grid number                                          1
 RS_GRID|   Bounds   1           -112     112                Points:         225
 RS_GRID|   Bounds   2           -112     112                Points:         225
 RS_GRID|   Bounds   3            -72      71                Points:         144
 RS_GRID| Real space distribution over                                  8 groups
 RS_GRID| Real space distribution along direction                              1
 RS_GRID| Border size                                                         26
 RS_GRID| Real space distribution over                                 16 groups
 RS_GRID| Real space distribution along direction                              2
 RS_GRID| Border size                                                         26
 RS_GRID|   Distribution                         Average         Max         Min
 RS_GRID|   Planes                                  80.1          81          80
 RS_GRID|   Distribution                         Average         Max         Min
 RS_GRID|   Planes                                  66.1          67          66

 RS_GRID| Information for grid number                                          2
 RS_GRID|   Bounds   1            -67      67                Points:         135
 RS_GRID|   Bounds   2            -67      67                Points:         135
 RS_GRID|   Bounds   3            -40      40                Points:          81
 RS_GRID| Real space distribution over                                  8 groups
 RS_GRID| Real space distribution along direction                              1
 RS_GRID| Border size                                                         24
 RS_GRID| Real space distribution over                                 16 groups
 RS_GRID| Real space distribution along direction                              2
 RS_GRID| Border size                                                         24
 RS_GRID|   Distribution                         Average         Max         Min
 RS_GRID|   Planes                                  64.9          65          64
 RS_GRID|   Distribution                         Average         Max         Min
 RS_GRID|   Planes                                  56.4          57          56

 RS_GRID| Information for grid number                                          3
 RS_GRID|   Bounds   1            -37      37                Points:          75
 RS_GRID|   Bounds   2            -37      37                Points:          75
 RS_GRID|   Bounds   3            -24      23                Points:          48
 RS_GRID| Real space fully replicated
 RS_GRID| Group size                                                           1

 RS_GRID| Information for grid number                                          4
 RS_GRID|   Bounds   1            -22      22                Points:          45
 RS_GRID|   Bounds   2            -22      22                Points:          45
 RS_GRID|   Bounds   3            -13      13                Points:          27
 RS_GRID| Real space fully replicated
 RS_GRID| Group size                                                           1

 BFGS| Use rational function optimization for step estimation:                NO
 BFGS| Use model Hessian for initial guess:                                  YES
 BFGS| Restart Hessian:                                                       NO
 BFGS| Trust radius:                                                       0.472

 *******************************************************************************
 ***                     STARTING GEOMETRY OPTIMIZATION                      ***
 ***                                   BFGS                                  ***
 *******************************************************************************

 Spin 1

 Number of electrons:                                                        768
 Number of occupied orbitals:                                                768
 Number of molecular orbitals:                                               768

 Spin 2

 Number of electrons:                                                        767
 Number of occupied orbitals:                                                767
 Number of molecular orbitals:                                               767

 Number of orbital functions:                                               3328
 Number of independent orbital functions:                                   3328

 Extrapolation method: initial_guess

 *** WARNING in qs_initial_guess.F:306 :: User requested to restart the    ***
 *** wavefunction from the file named: tio2-RESTART.wfn. This file does    ***
 *** not exist. Please check the existence of the file or change properly  ***
 *** the value of the keyword WFN_RESTART_FILE_NAME. Calculation continues ***
 *** using ATOMIC GUESS.                                                   ***


 Atomic guess: The first density matrix is obtained in terms of atomic orbitals
               and electronic configurations assigned to each atomic kind

 Guess for atomic kind: Ti

 Electronic structure
    Total number of core electrons                                         10.00
    Total number of valence electrons                                      12.00
    Total number of electrons                                              22.00
    Multiplicity                                                   not specified
    S   [  2.00  2.00] 2.00  2.00
    P   [  6.00] 6.00
    D      2.00


 *******************************************************************************
                  Iteration          Convergence                     Energy [au]
 *******************************************************************************
                          1         2.59099                     -56.573945749309
                          2        0.737518                     -57.461623245624
                          3        0.123244E-01                 -57.676656834797
                          4        0.338536E-02                 -57.676690535970
                          5        0.252157E-03                 -57.676697146183
                          6        0.162704E-05                 -57.676697160103
                          7        0.846593E-06                 -57.676697160104

 Energy components [Hartree]           Total Energy ::          -57.676697160104
                                        Band Energy ::          -13.440549799540
                                     Kinetic Energy ::           25.008468428381
                                   Potential Energy ::          -82.685165588485
                                      Virial (-V/T) ::            3.306286661467
                                        Core Energy ::          -97.155838374470
                                          XC Energy ::           -6.919409696495
                                     Coulomb Energy ::           46.398550910862
                       Total Pseudopotential Energy ::         -122.259340742080
                       Local Pseudopotential Energy ::         -118.928992669456
                    Nonlocal Pseudopotential Energy ::           -3.330348072625
                                        Confinement ::            0.950339392289

 Orbital energies  State     L     Occupation   Energy[a.u.]          Energy[eV]

                       1     0          2.000      -2.312566          -62.928123
                       2     0          2.000      -0.123060           -3.348633

                       1     1          6.000      -1.385567          -37.703193

                       1     2          2.000      -0.127948           -3.481643


 Total Electron Density at R=0:                                         0.004726

 Guess for atomic kind: O

 Electronic structure
    Total number of core electrons                                          2.00
    Total number of valence electrons                                       6.00
    Total number of electrons                                               8.00
    Multiplicity                                                   not specified
    S   [  2.00] 2.00
    P      4.00


 *******************************************************************************
                  Iteration          Convergence                     Energy [au]
 *******************************************************************************
                          1        0.702811                     -15.577904332270
                          2        0.612408                     -15.588447180504
                          3        0.955344E-02                 -15.655871208406
                          4        0.223754E-02                 -15.655885053552
                          5        0.157183E-02                 -15.655885461027
                          6        0.124953E-02                 -15.655885607150
                          7        0.312011E-06                 -15.655885858066

 Energy components [Hartree]           Total Energy ::          -15.655885858066
                                        Band Energy ::           -2.983128125584
                                     Kinetic Energy ::           11.754765134683
                                   Potential Energy ::          -27.410650992749
                                      Virial (-V/T) ::            2.331875684345
                                        Core Energy ::          -26.153522949072
                                          XC Energy ::           -3.157392363346
                                     Coulomb Energy ::           13.655029454351
                       Total Pseudopotential Energy ::          -37.943026860963
                       Local Pseudopotential Energy ::          -39.220419683052
                    Nonlocal Pseudopotential Energy ::            1.277392822089
                                        Confinement ::            0.347387772086

 Orbital energies  State     L     Occupation   Energy[a.u.]          Energy[eV]

                       1     0          2.000      -0.861522          -23.443215

                       1     1          4.000      -0.315021           -8.572154


 Total Electron Density at R=0:                                         0.000093

 Spin 1
 Re-scaling the density matrix to get the right number of electrons for spin 1
                  # Electrons              Trace(P)               Scaling factor
                          768               768.001                        1.000

 Spin 2
 Re-scaling the density matrix to get the right number of electrons for spin 2
                  # Electrons              Trace(P)               Scaling factor
                          767               768.001                        0.999


 SCF WAVEFUNCTION OPTIMIZATION

  ----------------------------------- OT ---------------------------------------
  Minimizer      : DIIS                : direct inversion
                                         in the iterative subspace
                                         using   7 DIIS vectors
                                         safer DIIS on
  Preconditioner : FULL_SINGLE_INVERSE : inversion of 
                                         H + eS - 2*(Sc)(c^T*H*c+const)(Sc)^T
  Precond_solver : DEFAULT
  stepsize       :    0.08000000                  energy_gap     :    0.08000000
  eps_taylor     :   0.10000E-15                  max_taylor     :             4
  ----------------------------------- OT ---------------------------------------

  Step     Update method      Time    Convergence         Total energy    Change
  ------------------------------------------------------------------------------
     1 OT DIIS     0.80E-01    2.0     0.00997440     -5648.5916998922 -5.65E+03
     2 OT DIIS     0.80E-01    1.5     0.00722531     -5683.0777637679 -3.45E+01
     3 OT DIIS     0.80E-01    1.5     0.00462502     -5715.3679766715 -3.23E+01
     4 OT DIIS     0.80E-01    1.5     0.00366276     -5725.7778262210 -1.04E+01
     5 OT DIIS     0.80E-01    1.5     0.00266982     -5736.9915030333 -1.12E+01
     6 OT DIIS     0.80E-01    1.5     0.00219457     -5743.8386655868 -6.85E+00
     7 OT DIIS     0.80E-01    1.5     0.00185145     -5749.7363005074 -5.90E+00
     8 OT DIIS     0.80E-01    1.5     0.00148134     -5755.5344621839 -5.80E+00
     9 OT DIIS     0.80E-01    1.5     0.00127081     -5759.1549553741 -3.62E+00
    10 OT DIIS     0.80E-01    1.5     0.00099269     -5762.3546475737 -3.20E+00
    11 OT DIIS     0.80E-01    1.5     0.00090540     -5763.1610919503 -8.06E-01
    12 OT DIIS     0.80E-01    1.5     0.00073717     -5764.8888277246 -1.73E+00
    13 OT DIIS     0.80E-01    1.5     0.00059834     -5766.2626495018 -1.37E+00
    14 OT DIIS     0.80E-01    1.5     0.00049520     -5767.1662255673 -9.04E-01
    15 OT DIIS     0.80E-01    1.5     0.00044094     -5767.6431327558 -4.77E-01
    16 OT DIIS     0.80E-01    1.5     0.00037625     -5768.1189229789 -4.76E-01
    17 OT DIIS     0.80E-01    1.5     0.00033872     -5768.4006963241 -2.82E-01
    18 OT DIIS     0.80E-01    1.5     0.00029558     -5768.7022406835 -3.02E-01
    19 OT DIIS     0.80E-01    1.4     0.00026401     -5768.8815331240 -1.79E-01
    20 OT DIIS     0.80E-01    1.5     0.00025123     -5768.9756680466 -9.41E-02
    21 OT DIIS     0.80E-01    1.5     0.00022560     -5769.1716552545 -1.96E-01
    22 OT DIIS     0.80E-01    1.4     0.00020254     -5769.3154268683 -1.44E-01
    23 OT DIIS     0.80E-01    1.5     0.00018757     -5769.4238891029 -1.08E-01
    24 OT DIIS     0.80E-01    1.5     0.00016896     -5769.5045337297 -8.06E-02
    25 OT DIIS     0.80E-01    1.5     0.00016243     -5769.5610211990 -5.65E-02
    26 OT DIIS     0.80E-01    1.5     0.00014944     -5769.6192496938 -5.82E-02
    27 OT DIIS     0.80E-01    1.5     0.00014462     -5769.6770686534 -5.78E-02
    28 OT DIIS     0.80E-01    1.5     0.00014229     -5769.6870056851 -9.94E-03
    29 OT SD       0.80E-01    1.5     0.00014774     -5769.7140341749 -2.70E-02
    30 OT DIIS     0.80E-01    1.4     0.00014186     -5769.7227507629 -8.72E-03
    31 OT DIIS     0.80E-01    1.5     0.00013006     -5769.7563378121 -3.36E-02
    32 OT DIIS     0.80E-01    1.5     0.00012445     -5769.7932307691 -3.69E-02
    33 OT DIIS     0.80E-01    1.5     0.00011402     -5769.8484287015 -5.52E-02
    34 OT DIIS     0.80E-01    1.5     0.00011212     -5769.8637258238 -1.53E-02
    35 OT DIIS     0.80E-01    1.5     0.00011012     -5769.8751075563 -1.14E-02
    36 OT DIIS     0.80E-01    1.5     0.00010538     -5769.9183248611 -4.32E-02
    37 OT DIIS     0.80E-01    1.5     0.00010492     -5769.9197385683 -1.41E-03
    38 OT DIIS     0.80E-01    1.5     0.00010080     -5769.9361296437 -1.64E-02
    39 OT DIIS     0.80E-01    1.5     0.00010017     -5769.9579637199 -2.18E-02
    40 OT DIIS     0.80E-01    1.4     0.00009618     -5769.9699598093 -1.20E-02

  Leaving inner SCF loop after reaching    40 steps.


  Electronic density on regular grids:      -1534.9999999999        0.0000000001
  Core density on regular grids:             1535.9999999995       -0.0000000005
  Total charge density on r-space grids:        0.9999999996
  Total charge density g-space grids:           0.9999999996

  Overlap energy of the core charge distribution:               0.00000000000311
  Self energy of the core charge distribution:             -12156.89556134359555
  Core Hamiltonian energy:                                   3304.57215535353407
  Hartree energy:                                            3994.47251453845729
  Exchange-correlation energy:                               -929.58850080231173

  DFT+U energy:                                                17.46943244459554

  Total energy:                                             -5769.96995980931570

  outer SCF iter =    1 RMS gradient =   0.96E-04 energy =      -5769.9699598093

  ----------------------------------- OT ---------------------------------------
[...]
       0.09612833      0.09699358      0.09795274      0.09852521
       0.09907864      0.10034397      0.10073947      0.10144882
       0.10184773      0.10195589      0.10226920      0.10297957
       0.10346491      0.10368715      0.10442069      0.10458640
       0.10528183      0.10581164      0.10621721      0.10689116
       0.10789611      0.10831605      0.10949852      0.11014366
       0.11077454      0.11126374      0.11162665      0.11231962
       0.11265930      0.11298373      0.11376314      0.11462853
       0.11494628      0.11522771      0.11552783      0.11599914
       0.11646494      0.11723856      0.11766049      0.11799131
       0.11850789      0.11871908      0.11936790      0.11981495
       0.12043229      0.12068179      0.12150777      0.12229681
       0.12288224      0.12406250      0.12461498      0.12602567
       0.12695109      0.12730875      0.12746054      0.12911538
       0.12996897      0.13023566      0.13136293      0.13211838
       0.13220238      0.13385884      0.13466884      0.13567618
       0.13644000      0.13675095      0.13763645      0.13872677
       0.13893091      0.14010926      0.14049812      0.14148036
       0.14186026      0.14235220      0.14319168      0.14354967
       0.14454054      0.14544367      0.14594685      0.14654656
       0.14724817      0.14803505      0.14869779      0.14917650
       0.15006196      0.15115562      0.15159952      0.15199709
       0.15297572      0.15320644      0.15343583      0.15401663
       0.15453681      0.15494844      0.15542028      0.15626098
       0.15665868      0.15699115      0.15718664      0.15742341
       0.15820749      0.15888122      0.15907187      0.15993200
       0.16027949      0.16091198      0.16150075      0.16190732
       0.16300607      0.16325345      0.16404539      0.16449189
       0.16520392      0.16606746      0.16643908      0.16682749
       0.16762383      0.16806078      0.16879199      0.16893649
       0.16979831      0.17051569      0.17161485      0.17228149
       0.17320995      0.17428096      0.17450277      0.17582740
       0.17640206      0.17817302      0.18114132      0.18277969
       0.18415155      0.18575315      0.18632565      0.18878792
       0.19054646      0.19127078      0.19153934      0.19212487
       0.19296910      0.19394665      0.19423255      0.19639681
       0.19681955      0.19723400      0.19919105      0.20037410
       0.20060977      0.20247174      0.20366161      0.20533996
       0.20552227      0.20790416      0.20885849      0.20973482
       0.21273165      0.21340562      0.21493560      0.21523867
       0.21736924      0.21846694      0.22099271      0.22182014
       0.22291656      0.22439368      0.22628757      0.22782818
       0.22962311      0.23065753      0.24135930
 Fermi Energy [eV] :    6.567720
  
  Lowest Eigenvalues of the unoccupied subspace spin            1
 -----------------------------------------------------
 OT| Eigensolver reached convergence in 67 iterations
       0.27384253
  
  Lowest Eigenvalues of the unoccupied subspace spin            2
 -----------------------------------------------------
 OT| Eigensolver reached convergence in 71 iterations
       0.27264111
  
 HOMO - LUMO gap [eV] :    1.272414
 HOMO - LUMO gap [eV] :    0.851221

 ENERGY| Total FORCE_EVAL ( QS ) energy [a.u.]:            -5770.440613133396255

 OPT| **************************************************************************
 OPT| Step number                                                             12
 OPT| Optimization method                                                   BFGS
 OPT| Total energy [hartree]                                    -5770.4406131334
 OPT| Effective energy change [hartree]                            -0.0052098490
 OPT| Predicted energy change [hartree]                            -0.0043188960
 OPT| Scaling factor                                                0.0000000000
 OPT| Step size                                                     0.0721087988
 OPT| Trust radius                                                  0.4724315332
 OPT| Decrease in energy                                                     YES
 OPT| Used time [s]                                                       50.492
 OPT|
 OPT| Maximum step size                                             0.0721087988
 OPT| Convergence limit for maximum step size                       0.0030000000
 OPT| Maximum step size is converged                                          NO
 OPT|
 OPT| RMS step size                                                 0.0088067354
 OPT| Convergence limit for RMS step size                           0.0015000000
 OPT| RMS step size is converged                                              NO
 OPT|
 OPT| Maximum gradient                                              0.0094517612
 OPT| Convergence limit for maximum gradient                        0.0004500000
 OPT| Maximum gradient is converged                                           NO
 OPT|
 OPT| RMS gradient                                                  0.0009549514
 OPT| Convergence limit for RMS gradient                            0.0003000000
 OPT| RMS gradient is converged                                               NO
 OPT| **************************************************************************
 OPT| Estimated peak process memory after this step [MiB]                    358

 --------------------------
 OPTIMIZATION STEP:     13
 --------------------------

 Spin 1

 Number of electrons:                                                        768
 Number of occupied orbitals:                                                768
 Number of molecular orbitals:                                               768

 Spin 2

 Number of electrons:                                                        767
 Number of occupied orbitals:                                                767
 Number of molecular orbitals:                                               767

 Number of orbital functions:                                               3328
 Number of independent orbital functions:                                   3328

 Parameters for the always stable predictor-corrector (ASPC) method:

  ASPC order: 1

  B(1) =   2.500000
  B(2) =  -2.000000
  B(3) =   0.500000

 Parameters for the always stable predictor-corrector (ASPC) method:

  ASPC order: 1

  B(1) =   2.500000
  B(2) =  -2.000000
  B(3) =   0.500000

 Extrapolation method: ASPC


 SCF WAVEFUNCTION OPTIMIZATION

  ----------------------------------- OT ---------------------------------------
  Minimizer      : DIIS                : direct inversion
                                         in the iterative subspace
                                         using   7 DIIS vectors
                                         safer DIIS on
  Preconditioner : FULL_SINGLE_INVERSE : inversion of 
                                         H + eS - 2*(Sc)(c^T*H*c+const)(Sc)^T
  Precond_solver : DEFAULT
  stepsize       :    0.08000000                  energy_gap     :    0.08000000
  eps_taylor     :   0.10000E-15                  max_taylor     :             4
  ----------------------------------- OT ---------------------------------------

  Step     Update method      Time    Convergence         Total energy    Change
  ------------------------------------------------------------------------------
     1 OT DIIS     0.80E-01    1.5     0.00007327     -5770.4360577326 -5.77E+03
     2 OT DIIS     0.80E-01    1.4     0.00005055     -5770.4377759768 -1.72E-03
     3 OT DIIS     0.80E-01    1.3     0.00003977     -5770.4389387295 -1.16E-03
     4 OT DIIS     0.80E-01    1.4     0.00002429     -5770.4405679479 -1.63E-03
     5 OT DIIS     0.80E-01    1.4     0.00001284     -5770.4413954408 -8.27E-04
     6 OT DIIS     0.80E-01    1.3     0.00000945     -5770.4415707517 -1.75E-04
     7 OT DIIS     0.80E-01    1.4     0.00000667     -5770.4416893888 -1.19E-04
     8 OT DIIS     0.80E-01    1.4     0.00000501     -5770.4417539703 -6.46E-05
     9 OT DIIS     0.80E-01    1.5     0.00000384     -5770.4417965289 -4.26E-05
    10 OT DIIS     0.80E-01    1.4     0.00000323     -5770.4418190340 -2.25E-05
    11 OT DIIS     0.80E-01    1.3     0.00000287     -5770.4418345925 -1.56E-05
    12 OT DIIS     0.80E-01    1.3     0.00000254     -5770.4418516565 -1.71E-05
    13 OT DIIS     0.80E-01    1.3     0.00000236     -5770.4418638916 -1.22E-05
    14 OT DIIS     0.80E-01    1.3     0.00000217     -5770.4418785120 -1.46E-05
    15 OT DIIS     0.80E-01    1.3     0.00000203     -5770.4418907688 -1.23E-05
    16 OT DIIS     0.80E-01    1.3     0.00000190     -5770.4419041640 -1.34E-05
    17 OT DIIS     0.80E-01    1.3     0.00000181     -5770.4419145548 -1.04E-05
    18 OT DIIS     0.80E-01    1.3     0.00000170     -5770.4419272101 -1.27E-05
    19 OT DIIS     0.80E-01    1.4     0.00000162     -5770.4419373699 -1.02E-05
    20 OT DIIS     0.80E-01    1.3     0.00000151     -5770.4419507452 -1.34E-05
    21 OT DIIS     0.80E-01    1.4     0.00000145     -5770.4419602129 -9.47E-06
    22 OT DIIS     0.80E-01    1.4     0.00000138     -5770.4419694547 -9.24E-06
    23 OT DIIS     0.80E-01    1.3     0.00000133     -5770.4419768096 -7.35E-06
    24 OT DIIS     0.80E-01    1.3     0.00000130     -5770.4419836261 -6.82E-06
    25 OT DIIS     0.80E-01    1.3     0.00000127     -5770.4419891876 -5.56E-06
    26 OT DIIS     0.80E-01    1.3     0.00000124     -5770.4419951504 -5.96E-06
    27 OT DIIS     0.80E-01    1.3     0.00000122     -5770.4419995743 -4.42E-06
    28 OT DIIS     0.80E-01    1.3     0.00000120     -5770.4420046818 -5.11E-06
    29 OT DIIS     0.80E-01    1.3     0.00000119     -5770.4420087444 -4.06E-06
    30 OT DIIS     0.80E-01    1.3     0.00000119     -5770.4420126419 -3.90E-06
    31 OT DIIS     0.80E-01    1.3     0.00000118     -5770.4420159838 -3.34E-06
    32 OT DIIS     0.80E-01    1.3     0.00000118     -5770.4420192315 -3.25E-06
    33 OT DIIS     0.80E-01    1.3     0.00000117     -5770.4420222991 -3.07E-06
    34 OT DIIS     0.80E-01    1.4     0.00000117     -5770.4420251837 -2.88E-06
    35 OT DIIS     0.80E-01    1.4     0.00000117     -5770.4420275434 -2.36E-06
    36 OT DIIS     0.80E-01    1.3     0.00000117     -5770.4420297359 -2.19E-06
    37 OT DIIS     0.80E-01    1.3     0.00000117     -5770.4420313176 -1.58E-06
    38 OT DIIS     0.80E-01    1.3     0.00000117     -5770.4420321953 -8.78E-07
    39 OT SD       0.80E-01    1.3     0.00000117     -5770.4420324254 -2.30E-07
    40 OT SD       0.80E-01    1.3     0.00000117     -5770.4420329850 -5.60E-07

  Leaving inner SCF loop after reaching    40 steps.


  Electronic density on regular grids:      -1535.0000000000       -0.0000000000
  Core density on regular grids:             1535.9999999995       -0.0000000005
  Total charge density on r-space grids:        0.9999999995
  Total charge density g-space grids:           0.9999999995

  Overlap energy of the core charge distribution:               0.00000000000342
  Self energy of the core charge distribution:             -12156.89556134359555
  Core Hamiltonian energy:                                   3317.04317996027703
  Hartree energy:                                            3986.06680156644597
  Exchange-correlation energy:                               -931.25481497065073

  DFT+U energy:                                                14.59836180248539

  Total energy:                                             -5770.44203298503362

  outer SCF iter =    1 RMS gradient =   0.12E-05 energy =      -5770.4420329850

  ----------------------------------- OT ---------------------------------------
  Minimizer      : DIIS                : direct inversion
                                         in the iterative subspace
                                         using   7 DIIS vectors
                                         safer DIIS on
  Preconditioner : FULL_SINGLE_INVERSE : inversion of 
                                         H + eS - 2*(Sc)(c^T*H*c+const)(Sc)^T
  Precond_solver : DEFAULT
  stepsize       :    0.08000000                  energy_gap     :    0.08000000
  eps_taylor     :   0.10000E-15                  max_taylor     :             4
  ----------------------------------- OT ---------------------------------------

  Step     Update method      Time    Convergence         Total energy    Change
  ------------------------------------------------------------------------------
     1 OT DIIS     0.80E-01    3.4     0.00000117     -5770.4420335447 -5.60E-07
     2 OT SD       0.80E-01    1.4     0.00000117     -5770.4420341059 -5.61E-07
     3 OT SD       0.80E-01    1.3     0.00000117     -5770.4420346672 -5.61E-07
     4 OT SD       0.80E-01    1.3     0.00000117     -5770.4420352286 -5.61E-07
     5 OT SD       0.80E-01    1.3     0.00000117     -5770.4420357901 -5.62E-07
     6 OT SD       0.80E-01    1.3     0.00000117     -5770.4420363518 -5.62E-07
     7 OT SD       0.80E-01    1.4     0.00000117     -5770.4420369135 -5.62E-07
     8 OT SD       0.80E-01    1.3     0.00000117     -5770.4420374755 -5.62E-07
     9 OT SD       0.80E-01    1.3     0.00000117     -5770.4420380376 -5.62E-07
    10 OT SD       0.80E-01    1.3     0.00000117     -5770.4420385999 -5.62E-07
    11 OT SD       0.80E-01    1.3     0.00000117     -5770.4420391624 -5.62E-07
    12 OT SD       0.80E-01    1.3     0.00000117     -5770.4420397251 -5.63E-07
    13 OT SD       0.80E-01    1.3     0.00000117     -5770.4420402880 -5.63E-07
    14 OT SD       0.80E-01    1.3     0.00000117     -5770.4420408511 -5.63E-07
    15 OT SD       0.80E-01    1.3     0.00000117     -5770.4420414145 -5.63E-07
    16 OT SD       0.80E-01    1.3     0.00000117     -5770.4420419782 -5.64E-07
    17 OT SD       0.80E-01    1.3     0.00000117     -5770.4420425421 -5.64E-07
    18 OT SD       0.80E-01    1.3     0.00000118     -5770.4420431063 -5.64E-07
    19 OT SD       0.80E-01    1.3     0.00000118     -5770.4420436708 -5.64E-07
    20 OT SD       0.80E-01    1.5     0.00000118     -5770.4420442356 -5.65E-07
    21 OT SD       0.80E-01    1.3     0.00000118     -5770.4420448007 -5.65E-07
    22 OT SD       0.80E-01    1.3     0.00000118     -5770.4420453661 -5.65E-07
    23 OT SD       0.80E-01    1.3     0.00000118     -5770.4420459319 -5.66E-07
    24 OT SD       0.80E-01    1.3     0.00000118     -5770.4420464980 -5.66E-07
    25 OT SD       0.80E-01    1.4     0.00000118     -5770.4420470645 -5.66E-07
    26 OT SD       0.80E-01    1.3     0.00000118     -5770.4420476313 -5.67E-07
    27 OT SD       0.80E-01    1.3     0.00000118     -5770.4420481985 -5.67E-07
    28 OT SD       0.80E-01    1.3     0.00000118     -5770.4420487661 -5.68E-07
    29 OT SD       0.80E-01    1.3     0.00000118     -5770.4420493341 -5.68E-07
    30 OT SD       0.80E-01    1.3     0.00000118     -5770.4420499025 -5.68E-07
    31 OT SD       0.80E-01    1.3     0.00000118     -5770.4420504713 -5.69E-07
    32 OT SD       0.80E-01    1.4     0.00000118     -5770.4420510406 -5.69E-07
    33 OT SD       0.80E-01    1.5     0.00000118     -5770.4420516103 -5.70E-07
    34 OT SD       0.80E-01    1.3     0.00000118     -5770.4420521804 -5.70E-07
    35 OT SD       0.80E-01    1.3     0.00000118     -5770.4420527510 -5.71E-07
    36 OT SD       0.80E-01    1.3     0.00000118     -5770.4420533221 -5.71E-07
    37 OT SD       0.80E-01    1.3     0.00000118     -5770.4420538936 -5.72E-07
    38 OT SD       0.80E-01    1.4     0.00000118     -5770.4420544656 -5.72E-07
    39 OT SD       0.80E-01    1.3     0.00000118     -5770.4420550381 -5.73E-07
    40 OT SD       0.80E-01    1.3     0.00000118     -5770.4420556112 -5.73E-07

  Leaving inner SCF loop after reaching    40 steps.


  Electronic density on regular grids:      -1534.9999999999        0.0000000001
  Core density on regular grids:             1535.9999999995       -0.0000000005
  Total charge density on r-space grids:        0.9999999996
  Total charge density g-space grids:           0.9999999996

  Overlap energy of the core charge distribution:               0.00000000000342
  Self energy of the core charge distribution:             -12156.89556134359555
  Core Hamiltonian energy:                                   3317.05200719725144
  Hartree energy:                                            3986.06086941623062
  Exchange-correlation energy:                               -931.25594786888473

  DFT+U energy:                                                14.59657698783502

  Total energy:                                             -5770.44205561115905

  outer SCF iter =    2 RMS gradient =   0.12E-05 energy =      -5770.4420556112

  ----------------------------------- OT ---------------------------------------
  Minimizer      : DIIS                : direct inversion
                                         in the iterative subspace
                                         using   7 DIIS vectors
                                         safer DIIS on
  Preconditioner : FULL_SINGLE_INVERSE : inversion of 
                                         H + eS - 2*(Sc)(c^T*H*c+const)(Sc)^T
  Precond_solver : DEFAULT
  stepsize       :    0.08000000                  energy_gap     :    0.08000000
  eps_taylor     :   0.10000E-15                  max_taylor     :             4
  ----------------------------------- OT ---------------------------------------

  Step     Update method      Time    Convergence         Total energy    Change
  ------------------------------------------------------------------------------
     1 OT DIIS     0.80E-01    3.4     0.00000119     -5770.4420561847 -5.74E-07
     2 OT SD       0.80E-01    1.3     0.00000119     -5770.4420567589 -5.74E-07
     3 OT SD       0.80E-01    1.3     0.00000119     -5770.4420573337 -5.75E-07
     4 OT SD       0.80E-01    1.3     0.00000119     -5770.4420579090 -5.75E-07
     5 OT SD       0.80E-01    1.3     0.00000119     -5770.4420584849 -5.76E-07
     6 OT SD       0.80E-01    1.4     0.00000119     -5770.4420590613 -5.76E-07
     7 OT SD       0.80E-01    1.3     0.00000119     -5770.4420596383 -5.77E-07
     8 OT SD       0.80E-01    1.3     0.00000119     -5770.4420602158 -5.78E-07
     9 OT SD       0.80E-01    1.3     0.00000119     -5770.4420607940 -5.78E-07
    10 OT SD       0.80E-01    1.3     0.00000119     -5770.4420613727 -5.79E-07
    11 OT SD       0.80E-01    1.3     0.00000119     -5770.4420619521 -5.79E-07
    12 OT SD       0.80E-01    1.3     0.00000119     -5770.4420625320 -5.80E-07
    13 OT SD       0.80E-01    1.4     0.00000119     -5770.4420631126 -5.81E-07
    14 OT SD       0.80E-01    1.3     0.00000119     -5770.4420636938 -5.81E-07
    15 OT SD       0.80E-01    1.3     0.00000119     -5770.4420642757 -5.82E-07
    16 OT SD       0.80E-01    1.3     0.00000119     -5770.4420648582 -5.82E-07
    17 OT SD       0.80E-01    1.3     0.00000120     -5770.4420654413 -5.83E-07
    18 OT SD       0.80E-01    1.3     0.00000120     -5770.4420660251 -5.84E-07
    19 OT SD       0.80E-01    1.4     0.00000120     -5770.4420666096 -5.84E-07
    20 OT SD       0.80E-01    1.3     0.00000120     -5770.4420671948 -5.85E-07
    21 OT SD       0.80E-01    1.3     0.00000120     -5770.4420677806 -5.86E-07
    22 OT SD       0.80E-01    1.3     0.00000120     -5770.4420683672 -5.87E-07
    23 OT SD       0.80E-01    1.3     0.00000120     -5770.4420689545 -5.87E-07
    24 OT SD       0.80E-01    1.3     0.00000120     -5770.4420695424 -5.88E-07
    25 OT SD       0.80E-01    1.4     0.00000120     -5770.4420701311 -5.89E-07
    26 OT SD       0.80E-01    1.3     0.00000120     -5770.4420707205 -5.89E-07
    27 OT SD       0.80E-01    1.4     0.00000120     -5770.4420713107 -5.90E-07
    28 OT SD       0.80E-01    1.3     0.00000120     -5770.4420719015 -5.91E-07
