     192
 i =       11, E =     -5770.4354032844
Ti         0.0013814780        0.0025816443       -0.0002947938
Ti         1.8890876794        1.8819891622        4.8091486925
Ti         0.0041449049        1.8808114680        2.4001970781
Ti         1.8882953632       -0.0014504360        7.2141198348
Ti         0.0144207550        3.7797511265        0.0105427835
Ti         1.8872680638       13.2412113624        4.8032383386
Ti        11.3565256987        1.8794581160        2.4115509707
Ti         5.6679737909       -0.0100576508        7.2215034753
Ti         1.8875878851        3.7732651927        7.2044784278
Ti        -0.0016037214       13.2355098892        2.4059382698
Ti         5.6623155948        1.8817930862        4.8004862373
Ti        11.3526894721       -0.0129526758       -0.0071429567
Ti         3.7744517200       -0.0015841627       -0.0015931509
Ti        13.2403517568        1.8816914539        4.8104508681
Ti        13.2391149244       -0.0006263513        7.2124443142
Ti         3.7733098805        1.8834973163        2.4004155887
Ti         1.8895320373        5.6646988038        4.8136252928
Ti         0.0000205355       11.3526220149        0.0052318285
Ti         0.0059388550        5.6680174598        2.3903206022
Ti         1.8891053871       11.3527801464        7.2117252097
Ti         0.0101430250        7.5720272661        0.0116136001
Ti         1.8843486331        9.4600725891        4.8053556148
Ti         7.5687847481        1.8791007792        2.4171157494
Ti         9.4572164572       -0.0041112756        7.2143260730
Ti         1.8831130308        7.5769625617        7.2050528808
Ti         0.0053044925        9.4639463876        2.4031314310
Ti         9.4593400833        1.8748571993        4.8061140986
Ti         7.5728256048       -0.0141216793       -0.0133545773
Ti         3.7630509732        3.7757789332        0.0124573135
Ti        13.2396559866       13.2321889198        4.8059245711
Ti        11.3596328573        5.6683551654        2.4145698619
Ti         5.6648121212       11.3559205403        7.2175349338
Ti        13.2502176887        3.7759285830        7.2003327541
Ti         3.7763315233       13.2358210470        2.4066176271
Ti         5.6624079078        5.6685756684        4.8053482031
Ti        11.3515258107       11.3605514865       -0.0026018705
Ti        11.3555992687       13.2358069717        2.4096555544
Ti         5.6463760068        3.7716671870        7.2063785124
Ti         3.7765106615       11.3530432979        0.0010087422
Ti        13.2428691369        5.6685970701        4.8167743884
Ti         5.6658573660       13.2361423303        4.7978716326
Ti        11.3893452620        3.7654631472        0.0138895890
Ti        13.2391784153       11.3549711996        7.2066709870
Ti         3.7708478116        5.6673882418        2.3942774041
Ti         3.7731422888        7.5757023944        0.0098314530
Ti        13.2381543263        9.4632538724        4.8068540928
Ti         7.5669648997        5.6710973764        2.4164983271
Ti         9.4625819891       11.3566663714        7.2096281250
Ti        13.2367576616        7.5760874562        7.2005066938
Ti         3.7765917967        9.4632980097        2.4048626295
Ti         9.4591792750        5.6708410221        4.8136353654
Ti         7.5703891060       11.3583884178       -0.0074515040
Ti        11.3540784147        9.4610533559        2.4112548504
Ti         5.6699288144        7.5843261213        7.2100674490
Ti         5.6653036798        9.4641520028        4.8018818189
Ti        11.3599426423        7.6011593275        0.0008483517
Ti         9.4686436288        3.7762733636        7.1623514139
Ti         7.5726643909       13.2359681389        2.4135264202
Ti         7.5330375923        3.7693032505        0.0162815389
Ti         9.4614746404       13.2354009410        4.8052644817
Ti         7.5613619265        7.5936797423       -0.0013807158
Ti         9.4642947837        9.4669546706        4.8053343697
Ti         7.5692345799        9.4638275909        2.4132758271
Ti         9.4650217302        7.5818817275        7.1983720460
O        -0.0017173744        0.0004761201        1.9763630381
O         1.8836521829        1.8853736234        6.7939740570
O         0.0046749439        1.8888479553        4.3825768829
O         1.8855645525        0.0018350553        9.1938590102
O         1.8845933071        0.0053846129        5.2369366062
O        -0.0018573614        1.8886745310        0.4188150757
O         1.8859524815        1.8880539940        2.8260304803
O         0.0050877676        0.0032402314        7.6358455745
O        -0.0020395952        3.7731734529        1.9735121556
O         1.8840383589       13.2359881611        6.7854123505
O        11.3507925055        1.8891367111        4.3940260355
O         5.6758293130        0.0061618912        9.1949762870
O         1.8816828554        3.7723476362        5.2416563986
O        -0.0006558039       13.2359024627        0.4258531443
O         5.6737750447        1.8891287855        2.8229974725
O        11.3492036298        0.0047047689        7.6276934222
O         3.7778646203        0.0061102976        7.6471961429
O        13.2365324634        1.8901649072        2.8293797565
O        13.2335310807        0.0025453966        9.1900284640
O         3.7744094320        1.8886851399        4.3689297614
O         1.8851040471        5.6743825104        6.7946685192
O         0.0001835794       11.3526821525        1.9825139849
O        -0.0058992156        5.6745995135        0.4196984137
O         1.8863519387       11.3541085008        5.2239365275
O        -0.0023810145        7.5662173336        1.9850650612
O         1.8830826665        9.4654988755        6.7717660658
O         7.5645593869        1.8897909191        4.3942950349
O         9.4643839771        0.0072843438        9.1773328623
O         1.8823799625        7.5601678006        5.2288869180
O        -0.0009832362        9.4634600010        0.4363993427
O         9.4645271675        1.8935901658        2.8392125074
O         7.5625593840        0.0086874578        7.6317983407
O         3.7707287654        0.0036832017        1.9814465704
O        13.2279734442        1.8864208906        6.7932026718
O         0.0052426998        5.6517193825        4.3803208422
O         1.8850582532       11.3502304641        9.1986406153
O        13.2339392395       -0.0004905633        5.2332220704
O         3.7734810691        1.8862267424        0.4149381215
O         1.8846959726        5.6545942783        2.8262206336
O         0.0040388958       11.3516761835        7.6386132200
O        11.3327640656        1.8789747601        0.4160199517
O         5.6529899584        0.0048886389        5.2333084028
O         5.6676801952        1.8822356396        6.7982064472
O        11.3503991635        0.0046811410        1.9720474747
O         1.8871032730        3.7686480760        9.1855097719
O         0.0045591839       13.2386584356        4.3826546791
O         0.0061043404        3.7707718619        7.6381567090
O         1.8837318376       13.2375511164        2.8215642486
O         3.7724819092        3.7733807511        1.9795755328
O        13.2349893980       13.2361151515        6.7844344752
O        11.3515655319        5.6500352442        4.3997965614
O         5.6751155385       11.3513238330        9.1934032417
O        13.2329558463        3.7736186436        5.2399438619
O         3.7725295725       13.2355073747        0.4245961055
O         5.6713609360        5.6506338458        2.8211559430
O        11.3539392037       11.3525025092        7.6285891508
O        11.3519096359       13.2334899218        0.4312781223
O         5.6588078811        3.7735364837        5.2361179583
O         3.7746021755       11.3519333211        7.6509113325
O        13.2390088144        5.6534320716        2.8276650756
O         5.6528775873       13.2343961567        6.7828723975
O        11.3456082700        3.7757190162        1.9687809083
O        13.2345578753       11.3510048521        9.1881619922
O         3.7747008379        5.6528536253        4.3713864074
O         5.6679731749        5.6736763753        6.8010605318
O        11.3529585788       11.3502988232        1.9858517500
O        13.2497018045        3.7704773803        9.1830545325
O         3.7750719209       13.2390094099        4.3707114628
O        11.3306424354        5.6773484621        0.4034515906
O         5.6543816323       11.3526374620        5.2248672381
O         3.7707855894        3.7717127380        7.6526311665
O        13.2334632484       13.2405465204        2.8319450924
O        13.2364958218       11.3511524556        5.2287875107
O         3.7721390684        5.6734230511        0.4148553230
O         5.6764387277       13.2386370573        2.8241341045
O        11.3432116405        3.7713185711        7.6426805756
O         3.7663900722       11.3522612438        1.9850490078
O        13.2272936850        5.6744266152        6.7941148821
O        11.3529351471       13.2406306647        4.3901913294
O         5.6606808080        3.7700925914        9.1828929937
O         3.7700426560        7.5631369702        1.9877569761
O        13.2383957660        9.4650421802        6.7743646185
O         7.5633742543        5.6516503342        4.3955310695
O         9.4637853573       11.3491856365        9.1766117830
O        13.2361012405        7.5655149276        5.2285733094
O         3.7713557284        9.4654286900        0.4364722449
O         9.4657652949        5.6506704748        2.8333670664
O         7.5631583278       11.3507151720        7.6285855284
O        11.3499575942        9.4752039409        0.4434844151
O         5.6543479920        7.5619900995        5.2272037566
O         5.6526325935        9.4690584726        6.7759813185
O        11.3482819309        7.5580739313        1.9733055378
O         9.4619195889        3.7788350139        9.1845740415
O         7.5619810368       13.2387772162        4.3871477470
O         7.5735228771        3.7721083283        7.6393896697
O         9.4651787647       13.2439230469        2.8397712151
O         7.5867357107        0.0051812271        1.9758841112
O         9.4681258070        1.8827674683        6.7974360360
O         0.0019645853        9.4673896118        4.3839540547
O         1.8883197361        7.5804434194        9.1918364552
O         9.4707367536        0.0003246009        5.2351216205
O         7.6022539402        1.8796258899        0.4149036586
O         1.8875826177        9.4703379926        2.8228438288
O        -0.0009019285        7.5840683369        7.6364725959
O         7.5925180971        3.7747961497        1.9800040801
O         9.4703206209       13.2366617897        6.7876384905
O        11.3527465092        9.4678430027        4.3916389484
O         5.6693826296        7.5765408485        9.1934815284
O         9.4703453236        3.7715737686        5.2112907862
O         7.5867605998       13.2340400510        0.4297843412
O         5.6733580853        9.4674967945        2.8218492792
O        11.3511513348        7.5749091869        7.6321873214
O         3.7760248247        7.5758550773        7.6440172065
O        13.2360476010        9.4672967025        2.8235622376
O        13.2386893065        7.5703240176        9.1930784529
O         3.7732059663        9.4693506112        4.3753127515
O         9.4662799730        5.6774495761        6.7995247891
O         7.5818416954       11.3522074422        1.9862581176
O         7.6065371251        5.6760775012        0.4083886678
O         9.4703455279       11.3528389274        5.2259566340
O         7.5895401728        7.5604496810        1.9794440496
O         9.4667644481        9.4666259029        6.7770142995
O         7.5664468273        9.4644105575        4.3902619574
O         9.4620512273        7.5612940749        9.1886587155
O         9.4663568267        7.5655380470        5.2225740399
O         7.5877659809        9.4722171930        0.4393471686
O         9.4638172677        9.4614279235        2.8337493507
O         7.5682712665        7.5746918874        7.6322127743
     192
 i =       12, E =     -5770.4406131334
Ti         0.0008761524        0.0036619204       -0.0018186832
Ti         1.8918670276        1.8777711524        4.8091247866
Ti         0.0045164365        1.8799743624        2.4040360535
Ti         1.8893202791       -0.0016172958        7.2139729877
Ti         0.0199235295        3.7806302297        0.0103104250
Ti         1.8869219680       13.2443733314        4.8026552594
Ti        11.3561544637        1.8729256235        2.4154143189
Ti         5.6678762770       -0.0108160277        7.2212245321
Ti         1.8871456244        3.7710566562        7.2013554840
Ti        -0.0030834076       13.2364095413        2.4063994816
Ti         5.6604197943        1.8776451628        4.8002812708
Ti        11.3503235914       -0.0149743151       -0.0069166670
Ti         3.7758829819       -0.0017437801       -0.0026074729
Ti        13.2418996299        1.8812076942        4.8093129907
Ti        13.2400053064       -0.0008388139        7.2109304188
Ti         3.7740242625        1.8821614710        2.4027623711
Ti         1.8930298889        5.6637065283        4.8113679911
Ti        -0.0015525770       11.3526912946        0.0063185346
Ti         0.0064187224        5.6698221582        2.3934332022
Ti         1.8915317658       11.3514934643        7.2110535496
Ti         0.0119642719        7.5713307003        0.0110479795
Ti         1.8835291580        9.4576089475        4.8042964349
Ti         7.5685430217        1.8732419379        2.4215458851
Ti         9.4548262167       -0.0013924345        7.2129373677
Ti         1.8857112131        7.5768389333        7.2059852443
Ti         0.0070254799        9.4639496538        2.4033038382
Ti         9.4569894500        1.8688724217        4.7994046863
Ti         7.5760564842       -0.0162389477       -0.0129930053
Ti         3.7529823865        3.7763175908        0.0158064488
Ti        13.2414332219       13.2307168063        4.8072295778
Ti        11.3598873854        5.6689954952        2.4269321284
Ti         5.6623094873       11.3570873505        7.2154288393
Ti        13.2596777118        3.7762800200        7.1962700534
Ti         3.7771396482       13.2355821226        2.4065172101
Ti         5.6595977054        5.6697493997        4.8039978116
Ti        11.3506705170       11.3636297695       -0.0001601403
Ti        11.3599466594       13.2368578958        2.4129015012
Ti         5.6347943006        3.7703397733        7.2032383360
Ti         3.7776073494       11.3513237690        0.0027582098
Ti        13.2472346720        5.6696789715        4.8160203976
Ti         5.6649633046       13.2355893814        4.7964362841
Ti        11.4226046946        3.7612704083        0.0224631510
Ti        13.2405913549       11.3551532419        7.2047434217
Ti         3.7710235560        5.6689518534        2.3959961897
Ti         3.7705161286        7.5753530571        0.0057972008
Ti        13.2406058880        9.4634022025        4.8063257076
Ti         7.5658589554        5.6739378368        2.4276233814
Ti         9.4625466066       11.3579782545        7.2070580278
Ti        13.2387262378        7.5762082895        7.2016422922
Ti         3.7771002884        9.4633215295        2.4070065375
Ti         9.4568187563        5.6744989811        4.8065188536
Ti         7.5700245744       11.3597723943       -0.0051040656
Ti        11.3552360908        9.4615095405        2.4136787302
Ti         5.6705599273        7.5838875176        7.2099375113
Ti         5.6638946381        9.4660297187        4.8038949490
Ti        11.3647193783        7.6149516086       -0.0023607748
Ti         9.4762691440        3.7797197748        7.1314458122
Ti         7.5737136247       13.2357180691        2.4147446076
Ti         7.4948792595        3.7680582273        0.0268480125
Ti         9.4620341853       13.2366301327        4.8066356958
Ti         7.5582966530        7.6021827683       -0.0026050614
Ti         9.4661848369        9.4702698821        4.8031809804
Ti         7.5688569760        9.4648369273        2.4158002590
Ti         9.4661817765        7.5826502056        7.1954267371
O        -0.0014619814        0.0019680668        1.9741478342
O         1.8854687053        1.8877582878        6.7934231933
O         0.0041973488        1.8840259882        4.3860112861
O         1.8876418835       -0.0014166028        9.1947296596
O         1.8855846797        0.0059639734        5.2415412968
O         0.0024775342        1.8894759269        0.4222872447
O         1.8870271170        1.8838317042        2.8256708899
O         0.0046297999        0.0010685622        7.6335391788
O         0.0034000743        3.7757985456        1.9732492194
O         1.8855453142       13.2375764917        6.7857379264
O        11.3498768586        1.8802829926        4.3934543288
O         5.6803799075       -0.0043654766        9.1951813796
O         1.8837202211        3.7717874992        5.2423915640
O        -0.0018956097       13.2361802451        0.4242957980
O         5.6771876253        1.8845754519        2.8237207543
O        11.3477876091       -0.0051760514        7.6277783580
O         3.7794858260        0.0001437787        7.6462570978
O        13.2337953925        1.8858318679        2.8298301682
O        13.2311251393       -0.0024038545        9.1883682397
O         3.7751384941        1.8852799456        4.3706433817
O         1.8847063473        5.6719558036        6.7934010876
O        -0.0011943179       11.3527368576        1.9812743927
O         0.0024322130        5.6724077268        0.4255556215
O         1.8866477660       11.3546188356        5.2202403775
O         0.0021114820        7.5675958140        1.9840304243
O         1.8828159679        9.4631673069        6.7677346869
O         7.5665728549        1.8807268015        4.3962461259
O         9.4630163221       -0.0107661430        9.1722522557
O         1.8812480524        7.5573132890        5.2300706105
O         0.0008250000        9.4621364067        0.4350089522
O         9.4637890915        1.8847576067        2.8399323969
O         7.5615224628       -0.0063367552        7.6339425297
O         3.7687305942        0.0050810135        1.9822608257
O        13.2340000785        1.8884752683        6.7929483114
O         0.0048277913        5.6517745387        4.3829823127
O         1.8862055162       11.3509160187        9.2011730684
O        13.2383671677       -0.0001204910        5.2304073954
O         3.7687505305        1.8895078468        0.4171036536
O         1.8858836425        5.6553999926        2.8252056324
O         0.0037476703       11.3537701929        7.6401702410
O        11.3232803372        1.8856951544        0.4114574089
O         5.6502331665        0.0048731346        5.2327166908
O         5.6728010803        1.8882292742        6.7988643387
O        11.3543813889        0.0051012277        1.9686483957
O         1.8869275178        3.7684854627        9.1841785263
O         0.0036601065       13.2387337397        4.3819321517
O         0.0045901438        3.7710561082        7.6326414766
O         1.8837357872       13.2393360129        2.8195625852
O         3.7666530603        3.7738772340        1.9825004060
O        13.2380501774       13.2355963186        6.7866191894
O        11.3515884740        5.6537856523        4.3991235862
O         5.6779896932       11.3542744437        9.1903039295
O        13.2404253108        3.7748863575        5.2405229820
O         3.7739465287       13.2365340246        0.4241650685
O         5.6741404541        5.6525218196        2.8207816894
O        11.3536284935       11.3554527558        7.6299946957
O        11.3517290405       13.2346988090        0.4349567190
O         5.6508076295        3.7725686231        5.2359336785
O         3.7745430470       11.3538613551        7.6561454277
O        13.2349555631        5.6555732222        2.8282422194
O         5.6529837376       13.2378393994        6.7795490326
O        11.3592775266        3.7769396169        1.9637088895
O        13.2334777330       11.3536324624        9.1859468042
O         3.7750765007        5.6526238034        4.3724757976
O         5.6748965997        5.6676008986        6.8024142354
O        11.3538900571       11.3516217334        1.9936784075
O        13.2534953117        3.7662584676        9.1809794027
O         3.7751511038       13.2399003766        4.3693304232
O        11.3174577801        5.6716867059        0.3885003862
O         5.6531362081       11.3525791112        5.2201271048
O         3.7715706689        3.7693141980        7.6477667533
O        13.2335761713       13.2389641813        2.8375830544
O        13.2387543656       11.3513943561        5.2283111011
O         3.7659515011        5.6703616928        0.4180363212
O         5.6787409102       13.2382952657        2.8223361641
O        11.3328052517        3.7680627729        7.6526269566
O         3.7664609308       11.3520924670        1.9875271166
O        13.2338964625        5.6726954607        6.7937716197
O        11.3527738789       13.2381438246        4.3932820713
O         5.6518810091        3.7664553473        9.1808517218
O         3.7674605684        7.5613068624        1.9857744866
O        13.2389823516        9.4620263417        6.7760788951
O         7.5628617472        5.6560236401        4.3959071631
O         9.4637265011       11.3540534257        9.1718859844
O        13.2396938790        7.5666679037        5.2308706957
O         3.7724457247        9.4623119993        0.4417522452
O         9.4654889052        5.6560844786        2.8294099876
O         7.5608925893       11.3548629912        7.6280862284
O        11.3516303709        9.4710506277        0.4449459461
O         5.6520175718        7.5606145268        5.2265731001
O         5.6521394631        9.4649294612        6.7762930172
O        11.3555685152        7.5536995629        1.9651149810
O         9.4591942471        3.7786831571        9.2181124066
O         7.5600375715       13.2380531087        4.3891787456
O         7.5901968579        3.7688714531        7.6425870201
O         9.4653979582       13.2427942687        2.8405919719
O         7.5850868127        0.0056762108        1.9778460223
O         9.4697547977        1.8871764604        6.7949738674
O         0.0016634075        9.4688863002        4.3824006617
O         1.8859148737        7.5816898124        9.1902831704
O         9.4686036374        0.0005688100        5.2357876408
O         7.5986230144        1.8873466524        0.4126283484
O         1.8874208621        9.4710064665        2.8228906693
O         0.0002477381        7.5874423989        7.6342299658
O         7.5794976213        3.7754399084        1.9807925285
O         9.4678059554       13.2386335666        6.7911094884
O        11.3531152957        9.4698573864        4.3908997851
O         5.6701500529        7.5826105858        9.1958361218
O         9.4722275607        3.7725978529        5.2068742328
O         7.5883846539       13.2368215447        0.4329908832
O         5.6739917229        9.4687922667        2.8200811064
O        11.3498003753        7.5843420467        7.6345030502
O         3.7783310124        7.5792545423        7.6389035781
O        13.2345160386        9.4682514412        2.8218444443
O        13.2354900220        7.5647620217        9.1960390077
O         3.7736356479        9.4703561154        4.3778108374
O         9.4683597997        5.6765035501        6.7936058255
O         7.5806672786       11.3525327823        1.9923771980
O         7.6023540216        5.6710766589        0.4002143398
O         9.4705441986       11.3533381821        5.2228465741
O         7.5827503662        7.5564533682        1.9769281751
O         9.4673320434        9.4619821828        6.7766330736
O         7.5676029795        9.4667793305        4.3914261466
O         9.4625857762        7.5491892521        9.2006118204
O         9.4669098893        7.5665819162        5.2217507169
O         7.5863824027        9.4684449892        0.4432998520
O         9.4645632307        9.4617760436        2.8310703812
O         7.5683746241        7.5854642609        7.6330995016
