 DBCSR| CPU Multiplication driver                                           XSMM (U)
 DBCSR| Multrec recursion limit                                              512 (U)
 DBCSR| Multiplication stack size                                           1000 (D)
 DBCSR| Maximum elements for images                                    UNLIMITED (U)
 DBCSR| Multiplicative factor virtual images                                   1 (U)
 DBCSR| Use multiplication densification                                       T (D)
 DBCSR| Multiplication size stacks                                             3 (U)
 DBCSR| Use memory pool for CPU allocation                                     F (U)
 DBCSR| Number of 3D layers                                               SINGLE (U)
 DBCSR| Use MPI memory allocation                                              F (U)
 DBCSR| Use RMA algorithm                                                      F (U)
 DBCSR| Use Communication thread                                               T (U)
 DBCSR| Communication thread load                                             87 (D)
 DBCSR| MPI: My process id                                                     0
 DBCSR| MPI: Number of processes                                             128
 DBCSR| OMP: Current number of threads                                         1
 DBCSR| OMP: Max number of threads                                             1
 DBCSR| Split modifier for TAS multiplication algorithm                  1.0E+00 (U)


  **** **** ******  **  PROGRAM STARTED AT               2025-06-19 09:33:51.637
 ***** ** ***  *** **   PROGRAM STARTED ON                             nid001312
 **    ****   ******    PROGRAM STARTED BY                                cahart
 ***** **    ** ** **   PROGRAM PROCESS ID                                195137
  **** **  *******  **  PROGRAM STARTED IN /mnt/lustre/a2fs-work2/work/e05/e05/c
                                           ahart/postdoc2/work/group/tio2/anatas
                                           e/cell-441/geo-opt/mp-390/hole/from-n
                                           eutral/pbe-u-o/u-2.4

 CP2K| version string:                                       CP2K version 2024.3
 CP2K| source code revision number:                                  git:6712648
 CP2K| cp2kflags: omp libint fftw3 libxc libgrpp elpa parallel scalapack cosma x
 CP2K|            smm plumed2 spglib mkl sirius libvori libbqb libvdwxc hdf5
 CP2K| is freely available from                            https://www.cp2k.org/
 CP2K| Program compiled at                       Thu 12 Sep 2024 10:20:47 AM BST
 CP2K| Program compiled on                                                  ln04
 CP2K| Program compiled for                                                local
 CP2K| Data directory path    /mnt/lustre/a2fs-work1/work/y07/shared/apps/core/c
 CP2K| Input file name                                                 input.inp

 GLOBAL| Force Environment number                                              1
 GLOBAL| Basis set file name                                        BASIS_MOLOPT
 GLOBAL| Potential file name                                      GTH_POTENTIALS
 GLOBAL| MM Potential file name                                     MM_POTENTIAL
 GLOBAL| Coordinate file name                                         system.xyz
 GLOBAL| Method name                                                        CP2K
 GLOBAL| Project name                                                       tio2
 GLOBAL| Run type                                                        GEO_OPT
 GLOBAL| FFT library                                                       FFTW3
 GLOBAL| Diagonalization library                                            ELPA
 GLOBAL| DGEMM library                                                      BLAS
 GLOBAL| Minimum number of eigenvectors for ELPA usage                        16
 GLOBAL| Orthonormality check for eigenvectors                          DISABLED
 GLOBAL| Matrix multiplication library                                     COSMA
 GLOBAL| All-to-all communication in single precision                          F
 GLOBAL| FFTs using library dependent lengths                                  F
 GLOBAL| Grid backend                                                       AUTO
 GLOBAL| Global print level                                               MEDIUM
 GLOBAL| MPI I/O enabled                                                       T
 GLOBAL| Total number of message passing processes                           128
 GLOBAL| Number of threads for this process                                    1
 GLOBAL| This output is from process                                           0
 GLOBAL| Stack size for threads created by OpenMP (OMP_STACKSIZE)        default
 GLOBAL| CPU model name                          AMD EPYC 7742 64-Core Processor
 GLOBAL| CPUID                                                              1002

 MEMORY| system memory details [Kb]
 MEMORY|                        rank 0           min           max       average
 MEMORY| MemTotal            263341976     263341976     263341976     263341976
 MEMORY| MemFree             233612428     233612428     233615136     233613926
 MEMORY| Buffers                     0             0             0             0
 MEMORY| Cached                1914880       1912488       1914880       1913591
 MEMORY| Slab                  6140684       6140448       6140684       6140556
 MEMORY| SReclaimable           923636        923608        923636        923620
 MEMORY| MemLikelyFree       236450944     236450944     236452216     236451139


 *** Fundamental physical constants (SI units) ***

 *** Literature: B. J. Mohr and B. N. Taylor,
 ***             CODATA recommended values of the fundamental physical
 ***             constants: 2006, Web Version 5.1
 ***             http://physics.nist.gov/constants

 Speed of light in vacuum [m/s]                             2.99792458000000E+08
 Magnetic constant or permeability of vacuum [N/A**2]       1.25663706143592E-06
 Electric constant or permittivity of vacuum [F/m]          8.85418781762039E-12
 Planck constant (h) [J*s]                                  6.62606896000000E-34
 Planck constant (h-bar) [J*s]                              1.05457162825177E-34
 Elementary charge [C]                                      1.60217648700000E-19
 Electron mass [kg]                                         9.10938215000000E-31
 Electron g factor [ ]                                     -2.00231930436220E+00
 Proton mass [kg]                                           1.67262163700000E-27
 Fine-structure constant                                    7.29735253760000E-03
 Rydberg constant [1/m]                                     1.09737315685270E+07
 Avogadro constant [1/mol]                                  6.02214179000000E+23
 Boltzmann constant [J/K]                                   1.38065040000000E-23
 Atomic mass unit [kg]                                      1.66053878200000E-27
 Bohr radius [m]                                            5.29177208590000E-11

 *** Conversion factors ***

 [u] -> [a.u.]                                              1.82288848426455E+03
 [Angstrom] -> [Bohr] = [a.u.]                              1.88972613288564E+00
 [a.u.] = [Bohr] -> [Angstrom]                              5.29177208590000E-01
 [a.u.] -> [s]                                              2.41888432650478E-17
 [a.u.] -> [fs]                                             2.41888432650478E-02
 [a.u.] -> [J]                                              4.35974393937059E-18
 [a.u.] -> [N]                                              8.23872205491840E-08
 [a.u.] -> [K]                                              3.15774647902944E+05
 [a.u.] -> [kJ/mol]                                         2.62549961709828E+03
 [a.u.] -> [kcal/mol]                                       6.27509468713739E+02
 [a.u.] -> [Pa]                                             2.94210107994716E+13
 [a.u.] -> [bar]                                            2.94210107994716E+08
 [a.u.] -> [atm]                                            2.90362800883016E+08
 [a.u.] -> [eV]                                             2.72113838565563E+01
 [a.u.] -> [Hz]                                             6.57968392072181E+15
 [a.u.] -> [1/cm] (wave numbers)                            2.19474631370540E+05
 [a.u./Bohr**2] -> [1/cm]                                   5.14048714338585E+03
 

 CELL_TOP| Volume [angstrom^3]:                                      2198.132028
 CELL_TOP| Vector a [angstrom    15.120     0.000     0.000   |a| =    15.120000
 CELL_TOP| Vector b [angstrom     0.000    15.120     0.000   |b| =    15.120000
 CELL_TOP| Vector c [angstrom     0.000     0.000     9.615   |c| =     9.615020
 CELL_TOP| Angle (b,c), alpha [degree]:                                90.000000
 CELL_TOP| Angle (a,c), beta  [degree]:                                90.000000
 CELL_TOP| Angle (a,b), gamma [degree]:                                90.000000
 CELL_TOP| Requested initial symmetry:                       MONOCLINIC_GAMMA_AB
 CELL_TOP| Numerically orthorhombic:                                         YES
 CELL_TOP| Periodicity                                                       XYZ

 *** WARNING in atoms_input.F:123 :: Overwriting coordinates. Active    ***
 *** coordinates read from &COORD section. Active coordinates READ from ***
 *** &COORD section                                                     ***


 GENERATE|  Preliminary Number of Bonds generated:                             0
 GENERATE|  Achieved consistency in connectivity generation.

 CELL| Volume [angstrom^3]:                                          2198.132028
 CELL| Vector a [angstrom]:      15.120     0.000     0.000   |a| =    15.120000
 CELL| Vector b [angstrom]:       0.000    15.120     0.000   |b| =    15.120000
 CELL| Vector c [angstrom]:       0.000     0.000     9.615   |c| =     9.615020
 CELL| Angle (b,c), alpha [degree]:                                    90.000000
 CELL| Angle (a,c), beta  [degree]:                                    90.000000
 CELL| Angle (a,b), gamma [degree]:                                    90.000000
 CELL| Requested initial symmetry:                           MONOCLINIC_GAMMA_AB
 CELL| Numerically orthorhombic:                                             YES
 CELL| Periodicity                                                           XYZ

 CELL_REF| Volume [angstrom^3]:                                      2198.132028
 CELL_REF| Vector a [angstrom    15.120     0.000     0.000   |a| =    15.120000
 CELL_REF| Vector b [angstrom     0.000    15.120     0.000   |b| =    15.120000
 CELL_REF| Vector c [angstrom     0.000     0.000     9.615   |c| =     9.615020
 CELL_REF| Angle (b,c), alpha [degree]:                                90.000000
 CELL_REF| Angle (a,c), beta  [degree]:                                90.000000
 CELL_REF| Angle (a,b), gamma [degree]:                                90.000000
 CELL_REF| Requested initial symmetry:                       MONOCLINIC_GAMMA_AB
 CELL_REF| Numerically orthorhombic:                                         YES
 CELL_REF| Periodicity                                                       XYZ

 *******************************************************************************
 *******************************************************************************
 **                                                                           **
 **     #####                         ##              ##                      **
 **    ##   ##            ##          ##              ##                      **
 **   ##     ##                       ##            ######                    **
 **   ##     ##  ##   ##  ##   #####  ##  ##   ####   ##    #####    #####    **
 **   ##     ##  ##   ##  ##  ##      ## ##   ##      ##   ##   ##  ##   ##   **
 **   ##  ## ##  ##   ##  ##  ##      ####     ###    ##   ######   ######    **
 **    ##  ###   ##   ##  ##  ##      ## ##      ##   ##   ##       ##        **
 **     #######   #####   ##   #####  ##  ##  ####    ##    #####   ##        **
 **           ##                                                    ##        **
 **                                                                           **
 **                                                ... make the atoms dance   **
 **                                                                           **
 **            Copyright (C) by CP2K developers group (2000-2024)             **
 **                      J. Chem. Phys. 152, 194103 (2020)                    **
 **                                                                           **
 *******************************************************************************

 DFT| Spin unrestricted (spin-polarized) Kohn-Sham calculation               UKS
 DFT| Multiplicity                                                             2
 DFT| Number of spin states                                                    2
 DFT| Charge                                                                   1
 DFT| Self-interaction correction (SIC)                                       NO
 DFT| Cutoffs: density                                              1.000000E-10
 DFT|          gradient                                             1.000000E-10
 DFT|          tau                                                  1.000000E-10
 DFT|          cutoff_smoothing_range                               0.000000E+00
 DFT| XC density smoothing                                                  NONE
 DFT| XC derivatives                                                          PW

 DFT+U| Method                                                          MULLIKEN
 DFT+U| Check atomic kind information for details

 FUNCTIONAL| PBE:
 FUNCTIONAL| J.P.Perdew, K.Burke, M.Ernzerhof, Phys. Rev. Letter, vol. 77, n 18,
 FUNCTIONAL|  pp. 3865-3868, (1996) {spin polarized}                            


 QS| Method:                                                                 GPW
 QS| Density plane wave grid type                        NON-SPHERICAL FULLSPACE
 QS| Number of grid levels:                                                    4
 QS| Density cutoff [a.u.]:                                                300.0
 QS| Multi grid cutoff [a.u.]: 1) grid level                               300.0
 QS|                           2) grid level                               100.0
 QS|                           3) grid level                                33.3
 QS|                           4) grid level                                11.1
 QS| Grid level progression factor:                                          3.0
 QS| Relative density cutoff [a.u.]:                                        20.0
 QS| Interaction thresholds: eps_pgf_orb:                                1.0E-06
 QS|                         eps_filter_matrix:                          0.0E+00
 QS|                         eps_core_charge:                            1.0E-14
 QS|                         eps_rho_gspace:                             1.0E-12
 QS|                         eps_rho_rspace:                             1.0E-12
 QS|                         eps_gvg_rspace:                             1.0E-06
 QS|                         eps_ppl:                                    1.0E-02
 QS|                         eps_ppnl:                                   1.0E-08


 ATOMIC KIND INFORMATION

  1. Atomic kind: Ti                                    Number of atoms:      64

     Orbital Basis Set                                    DZVP-MOLOPT-SR-GTH-q12

       Number of orbital shell sets:                                           1
       Number of orbital shells:                                               8
       Number of primitive Cartesian functions:                                6
       Number of Cartesian basis functions:                                   31
       Number of spherical basis functions:                                   26
       Norm type:                                                              2

       Normalised Cartesian orbitals:

                        Set   Shell   Orbital            Exponent    Coefficient

                          1       1    2s                7.884570       0.015554
                                                         3.894698       0.963603
                                                         1.513589      -0.631435
                                                         0.596768      -0.343022
                                                         0.222222      -0.006534
                                                         0.077078       0.007652

                          1       2    3s                7.884570      -0.009340
                                                         3.894698       0.212624
                                                         1.513589      -0.258368
                                                         0.596768      -0.226206
                                                         0.222222       0.039438
                                                         0.077078       0.107179

                          1       3    4s                7.884570       0.276563
                                                         3.894698       0.105452
                                                         1.513589       0.085149
                                                         0.596768       0.882541
                                                         0.222222      -0.696223
                                                         0.077078       0.156638

                          1       4    3px               7.884570      -2.034794
                                                         3.894698       0.782008
                                                         1.513589       1.253903
                                                         0.596768       0.347823
                                                         0.222222       0.016778
                                                         0.077078      -0.000433
                          1       4    3py               7.884570      -2.034794
                                                         3.894698       0.782008
                                                         1.513589       1.253903
                                                         0.596768       0.347823
                                                         0.222222       0.016778
                                                         0.077078      -0.000433
                          1       4    3pz               7.884570      -2.034794
                                                         3.894698       0.782008
                                                         1.513589       1.253903
                                                         0.596768       0.347823
                                                         0.222222       0.016778
                                                         0.077078      -0.000433

                          1       5    4px               7.884570       0.376572
                                                         3.894698      -0.182875
                                                         1.513589      -0.474776
                                                         0.596768      -0.081757
                                                         0.222222       0.064432
                                                         0.077078       0.047279
                          1       5    4py               7.884570       0.376572
                                                         3.894698      -0.182875
                                                         1.513589      -0.474776
                                                         0.596768      -0.081757
                                                         0.222222       0.064432
                                                         0.077078       0.047279
                          1       5    4pz               7.884570       0.376572
                                                         3.894698      -0.182875
                                                         1.513589      -0.474776
                                                         0.596768      -0.081757
                                                         0.222222       0.064432
                                                         0.077078       0.047279

                          1       6    4dx2              7.884570       3.047350
                                                         3.894698       3.289529
                                                         1.513589       1.060616
                                                         0.596768       0.249930
                                                         0.222222       0.038806
                                                         0.077078       0.002319
                          1       6    4dxy              7.884570       5.278165
                                                         3.894698       5.697631
                                                         1.513589       1.837041
                                                         0.596768       0.432892
                                                         0.222222       0.067214
                                                         0.077078       0.004017
                          1       6    4dxz              7.884570       5.278165
                                                         3.894698       5.697631
                                                         1.513589       1.837041
                                                         0.596768       0.432892
                                                         0.222222       0.067214
                                                         0.077078       0.004017
                          1       6    4dy2              7.884570       3.047350
                                                         3.894698       3.289529
                                                         1.513589       1.060616
                                                         0.596768       0.249930
                                                         0.222222       0.038806
                                                         0.077078       0.002319
                          1       6    4dyz              7.884570       5.278165
                                                         3.894698       5.697631
                                                         1.513589       1.837041
                                                         0.596768       0.432892
                                                         0.222222       0.067214
                                                         0.077078       0.004017
                          1       6    4dz2              7.884570       3.047350
                                                         3.894698       3.289529
                                                         1.513589       1.060616
                                                         0.596768       0.249930
                                                         0.222222       0.038806
                                                         0.077078       0.002319

                          1       7    5dx2              7.884570      -2.119015
                                                         3.894698      -1.237751
                                                         1.513589      -0.746777
                                                         0.596768      -0.071514
                                                         0.222222       0.004086
                                                         0.077078       0.017595
                          1       7    5dxy              7.884570      -3.670241
                                                         3.894698      -2.143848
                                                         1.513589      -1.293455
                                                         0.596768      -0.123865
                                                         0.222222       0.007077
                                                         0.077078       0.030475
                          1       7    5dxz              7.884570      -3.670241
                                                         3.894698      -2.143848
                                                         1.513589      -1.293455
                                                         0.596768      -0.123865
                                                         0.222222       0.007077
                                                         0.077078       0.030475
                          1       7    5dy2              7.884570      -2.119015
                                                         3.894698      -1.237751
                                                         1.513589      -0.746777
                                                         0.596768      -0.071514
                                                         0.222222       0.004086
                                                         0.077078       0.017595
                          1       7    5dyz              7.884570      -3.670241
                                                         3.894698      -2.143848
                                                         1.513589      -1.293455
                                                         0.596768      -0.123865
                                                         0.222222       0.007077
                                                         0.077078       0.030475
                          1       7    5dz2              7.884570      -2.119015
                                                         3.894698      -1.237751
                                                         1.513589      -0.746777
                                                         0.596768      -0.071514
                                                         0.222222       0.004086
                                                         0.077078       0.017595

                          1       8    5fx3              7.884570      -0.342058
                                                         3.894698       0.375798
                                                         1.513589      -0.706469
                                                         0.596768      -0.229994
                                                         0.222222      -0.012723
                                                         0.077078       0.003932
                          1       8    5fx2y             7.884570      -0.764866
                                                         3.894698       0.840310
                                                         1.513589      -1.579712
                                                         0.596768      -0.514282
                                                         0.222222      -0.028450
                                                         0.077078       0.008792
                          1       8    5fx2z             7.884570      -0.764866
                                                         3.894698       0.840310
                                                         1.513589      -1.579712
                                                         0.596768      -0.514282
                                                         0.222222      -0.028450
                                                         0.077078       0.008792
                          1       8    5fxy2             7.884570      -0.764866
                                                         3.894698       0.840310
                                                         1.513589      -1.579712
                                                         0.596768      -0.514282
                                                         0.222222      -0.028450
                                                         0.077078       0.008792
                          1       8    5fxyz             7.884570      -1.324787
                                                         3.894698       1.455460
                                                         1.513589      -2.736142
                                                         0.596768      -0.890763
                                                         0.222222      -0.049276
                                                         0.077078       0.015229
                          1       8    5fxz2             7.884570      -0.764866
                                                         3.894698       0.840310
                                                         1.513589      -1.579712
                                                         0.596768      -0.514282
                                                         0.222222      -0.028450
                                                         0.077078       0.008792
                          1       8    5fy3              7.884570      -0.342058
                                                         3.894698       0.375798
                                                         1.513589      -0.706469
                                                         0.596768      -0.229994
                                                         0.222222      -0.012723
                                                         0.077078       0.003932
                          1       8    5fy2z             7.884570      -0.764866
                                                         3.894698       0.840310
                                                         1.513589      -1.579712
                                                         0.596768      -0.514282
                                                         0.222222      -0.028450
                                                         0.077078       0.008792
                          1       8    5fyz2             7.884570      -0.764866
                                                         3.894698       0.840310
                                                         1.513589      -1.579712
                                                         0.596768      -0.514282
                                                         0.222222      -0.028450
                                                         0.077078       0.008792
                          1       8    5fz3              7.884570      -0.342058
                                                         3.894698       0.375798
                                                         1.513589      -0.706469
                                                         0.596768      -0.229994
                                                         0.222222      -0.012723
                                                         0.077078       0.003932

       Atomic covalent radius [Angstrom]:                                  1.320

       Atomic van der Waals radius [Angstrom]:                             1.760

     GTH Potential information for                                   GTH-PBE-q12

       Description:                       Goedecker-Teter-Hutter pseudopotential
                                           Goedecker et al., PRB 54, 1703 (1996)
                                          Hartwigsen et al., PRB 58, 3641 (1998)
                                                      Krack, TCA 114, 145 (2005)

       Gaussian exponent of the core charge distribution:               3.462604
       Electronic configuration (s p d ...):                           4   6   2

       Parameters of the local part of the GTH pseudopotential:

                          rloc        C1          C2          C3          C4
                        0.380000    8.711442   -0.700287

       Parameters of the non-local part of the GTH pseudopotential:

                   l      r(l)      h(i,j,l)

                   0    0.337771    2.575264    3.692971
                                    3.692971   -4.767605
                   1    0.242531   -4.630541    8.870875
                                    8.870875  -10.496161
                   2    0.243317   -9.406653

  2. Atomic kind: O                                     Number of atoms:     128

     Orbital Basis Set                                     DZVP-MOLOPT-SR-GTH-q6

       Number of orbital shell sets:                                           1
       Number of orbital shells:                                               5
       Number of primitive Cartesian functions:                                5
       Number of Cartesian basis functions:                                   14
       Number of spherical basis functions:                                   13
       Norm type:                                                              2

       Normalised Cartesian orbitals:

                        Set   Shell   Orbital            Exponent    Coefficient

                          1       1    2s               10.389228       0.396646
                                                         3.849621       0.208811
                                                         1.388401      -0.301641
                                                         0.496955      -0.274061
                                                         0.162492      -0.033677

                          1       2    3s               10.389228       0.303673
                                                         3.849621       0.240943
                                                         1.388401      -0.313066
                                                         0.496955      -0.043055
                                                         0.162492       0.213991

                          1       3    3px              10.389228      -1.530415
                                                         3.849621      -1.371928
                                                         1.388401      -0.761951
                                                         0.496955      -0.253695
                                                         0.162492      -0.035541
                          1       3    3py              10.389228      -1.530415
                                                         3.849621      -1.371928
                                                         1.388401      -0.761951
                                                         0.496955      -0.253695
                                                         0.162492      -0.035541
                          1       3    3pz              10.389228      -1.530415
                                                         3.849621      -1.371928
                                                         1.388401      -0.761951
                                                         0.496955      -0.253695
                                                         0.162492      -0.035541

                          1       4    4px              10.389228      -0.565392
                                                         3.849621      -0.038231
                                                         1.388401      -0.382373
                                                         0.496955       0.179070
                                                         0.162492       0.122714
                          1       4    4py              10.389228      -0.565392
                                                         3.849621      -0.038231
                                                         1.388401      -0.382373
                                                         0.496955       0.179070
                                                         0.162492       0.122714
                          1       4    4pz              10.389228      -0.565392
                                                         3.849621      -0.038231
                                                         1.388401      -0.382373
                                                         0.496955       0.179070
                                                         0.162492       0.122714

                          1       5    4dx2             10.389228       1.867377
                                                         3.849621       0.670994
                                                         1.388401       1.353441
                                                         0.496955       0.273538
                                                         0.162492       0.006620
                          1       5    4dxy             10.389228       3.234392
                                                         3.849621       1.162195
                                                         1.388401       2.344229
                                                         0.496955       0.473781
                                                         0.162492       0.011466
                          1       5    4dxz             10.389228       3.234392
                                                         3.849621       1.162195
                                                         1.388401       2.344229
                                                         0.496955       0.473781
                                                         0.162492       0.011466
                          1       5    4dy2             10.389228       1.867377
                                                         3.849621       0.670994
                                                         1.388401       1.353441
                                                         0.496955       0.273538
                                                         0.162492       0.006620
                          1       5    4dyz             10.389228       3.234392
                                                         3.849621       1.162195
                                                         1.388401       2.344229
                                                         0.496955       0.473781
                                                         0.162492       0.011466
                          1       5    4dz2             10.389228       1.867377
                                                         3.849621       0.670994
                                                         1.388401       1.353441
                                                         0.496955       0.273538
                                                         0.162492       0.006620

       Atomic covalent radius [Angstrom]:                                  0.730

       Atomic van der Waals radius [Angstrom]:                             1.520

     GTH Potential information for                                    GTH-PBE-q6

       Description:                       Goedecker-Teter-Hutter pseudopotential
                                           Goedecker et al., PRB 54, 1703 (1996)
                                          Hartwigsen et al., PRB 58, 3641 (1998)
                                                      Krack, TCA 114, 145 (2005)

       Gaussian exponent of the core charge distribution:               8.360253
       Electronic configuration (s p d ...):                               2   4

       Parameters of the local part of the GTH pseudopotential:

                          rloc        C1          C2          C3          C4
                        0.244554  -16.667215    2.487311

       Parameters of the non-local part of the GTH pseudopotential:

                   l      r(l)      h(i,j,l)

                   0    0.220956   18.337458
                   1    0.211332

     A DFT+U correction is applied to atoms of this atomic kind:
       Angular quantum momentum number L:                                      1
       U(eff) = (U - J) value in [eV]:                                     2.400


 MOLECULE KIND INFORMATION


 All atoms are their own molecule, skipping detailed information


 TOTAL NUMBERS AND MAXIMUM NUMBERS

  Total number of            - Atomic kinds:                                   2
                             - Atoms:                                        192
                             - Shell sets:                                   192
                             - Shells:                                      1152
                             - Primitive Cartesian functions:               1024
                             - Cartesian basis functions:                   3776
                             - Spherical basis functions:                   3328

  Maximum angular momentum of- Orbital basis functions:                        3
                             - Local part of the GTH pseudopotential:          2
                             - Non-local part of the GTH pseudopotential:      3


 MODULE QUICKSTEP: ATOMIC COORDINATES IN ANGSTROM

   Atom Kind Element         X             Y             Z       Z(eff)     Mass
      1    1 Ti   22      0.000806      0.000796      0.000001  12.0000  47.8670
      2    1 Ti   22      1.888400      1.888406      4.807508  12.0000  47.8670
      3    1 Ti   22      0.000794      1.888382      2.402068  12.0000  47.8670
      4    1 Ti   22      1.888393      0.000791      7.212949  12.0000  47.8670
      5    1 Ti   22      0.000811      3.776037      0.003083  12.0000  47.8670
      6    1 Ti   22      1.888409     13.237828      4.805773  12.0000  47.8670
      7    1 Ti   22     11.350289      1.888392      2.403680  12.0000  47.8670
      8    1 Ti   22      5.669421      0.000845      7.216975  12.0000  47.8670
      9    1 Ti   22      1.888430      3.776054      7.209844  12.0000  47.8670
     10    1 Ti   22      0.000810     13.237797      2.403811  12.0000  47.8670
     11    1 Ti   22      5.669449      1.888516      4.803445  12.0000  47.8670
     12    1 Ti   22     11.350276      0.000781     -0.001621  12.0000  47.8670
     13    1 Ti   22      3.776044      0.000813     -0.003074  12.0000  47.8670
     14    1 Ti   22     13.237825      1.888405      4.809246  12.0000  47.8670
     15    1 Ti   22     13.237809      0.000810      7.211223  12.0000  47.8670
     16    1 Ti   22      3.776056      1.888437      2.405174  12.0000  47.8670
     17    1 Ti   22      1.888512      5.669454      4.811570  12.0000  47.8670
     18    1 Ti   22      0.000783     11.350284      0.001613  12.0000  47.8670
     19    1 Ti   22      0.000843      5.669422      2.398037  12.0000  47.8670
     20    1 Ti   22      1.888397     11.350283      7.211338  12.0000  47.8670
     21    1 Ti   22      0.000839      7.569635      0.005664  12.0000  47.8670
     22    1 Ti   22      1.888453      9.462831      4.808828  12.0000  47.8670
     23    1 Ti   22      7.569627      1.888501      2.407764  12.0000  47.8670
     24    1 Ti   22      9.462819      0.000815      7.214253  12.0000  47.8670
     25    1 Ti   22      1.888500      7.569620      7.207255  12.0000  47.8670
     26    1 Ti   22      0.000815      9.462820      2.400771  12.0000  47.8670
     27    1 Ti   22      9.462828      1.888457      4.806191  12.0000  47.8670
     28    1 Ti   22      7.569628      0.000840     -0.005661  12.0000  47.8670
     29    1 Ti   22      3.776089      3.776094     -0.000002  12.0000  47.8670
     30    1 Ti   22     13.237820     13.237827      4.807519  12.0000  47.8670
     31    1 Ti   22     11.350183      5.669443      2.399619  12.0000  47.8670
     32    1 Ti   22      5.669447     11.350175      7.215398  12.0000  47.8670
     33    1 Ti   22     13.237794      3.776052      7.208145  12.0000  47.8670
     34    1 Ti   22      3.776057     13.237791      2.406881  12.0000  47.8670
     35    1 Ti   22      5.669478      5.669485      4.807506  12.0000  47.8670
     36    1 Ti   22     11.350279     11.350283      0.000000  12.0000  47.8670
     37    1 Ti   22     11.350293     13.237818      2.405423  12.0000  47.8670
     38    1 Ti   22      5.669464      3.776177      7.213954  12.0000  47.8670
     39    1 Ti   22      3.776046     11.350244     -0.001489  12.0000  47.8670
     40    1 Ti   22     13.237779      5.669433      4.813268  12.0000  47.8670
     41    1 Ti   22      5.669440     13.237782      4.801754  12.0000  47.8670
     42    1 Ti   22     11.350238      3.776042      0.001487  12.0000  47.8670
     43    1 Ti   22     13.237821     11.350279      7.209600  12.0000  47.8670
     44    1 Ti   22      3.776174      5.669466      2.401066  12.0000  47.8670
     45    1 Ti   22      3.776164      7.569592      0.002635  12.0000  47.8670
     46    1 Ti   22     13.237814      9.462837      4.810539  12.0000  47.8670
     47    1 Ti   22      7.569590      5.669471      2.403696  12.0000  47.8670
     48    1 Ti   22      9.462821     11.350243      7.212655  12.0000  47.8670
     49    1 Ti   22     13.237778      7.569637      7.205561  12.0000  47.8670
     50    1 Ti   22      3.776096      9.462769      2.403850  12.0000  47.8670
     51    1 Ti   22      9.462700      5.669485      4.810296  12.0000  47.8670
     52    1 Ti   22      7.569618     11.350189     -0.004078  12.0000  47.8670
     53    1 Ti   22     11.350249      9.462815      2.402357  12.0000  47.8670
     54    1 Ti   22      5.669469      7.569585      7.211316  12.0000  47.8670
     55    1 Ti   22      5.669485      9.462708      4.804715  12.0000  47.8670
     56    1 Ti   22     11.350183      7.569615      0.004072  12.0000  47.8670
     57    1 Ti   22      9.462769      3.776097      7.211167  12.0000  47.8670
     58    1 Ti   22      7.569644     13.237775      2.409461  12.0000  47.8670
     59    1 Ti   22      7.569586      3.776164     -0.002638  12.0000  47.8670
     60    1 Ti   22      9.462837     13.237824      4.804483  12.0000  47.8670
     61    1 Ti   22      7.569583      7.569588     -0.000001  12.0000  47.8670
     62    1 Ti   22      9.462797      9.462796      4.807508  12.0000  47.8670
     63    1 Ti   22      7.569599      9.462699      2.406480  12.0000  47.8670
     64    1 Ti   22      9.462697      7.569596      7.208537  12.0000  47.8670
     65    2 O     8      0.000894      0.001590      1.992510   6.0000  15.9994
     66    2 O     8      1.884829      1.887551      6.800385   6.0000  15.9994
     67    2 O     8      0.001581      1.884794      4.396688   6.0000  15.9994
     68    2 O     8      1.887571      0.000888      9.203716   6.0000  15.9994
     69    2 O     8      1.884796      0.001580      5.218333   6.0000  15.9994
     70    2 O     8      0.000888      1.887570      0.411305   6.0000  15.9994
     71    2 O     8      1.887551      1.884830      2.814634   6.0000  15.9994
     72    2 O     8      0.001593      0.000893      7.622508   6.0000  15.9994
     73    2 O     8      0.000925      3.775988      1.990575   6.0000  15.9994
     74    2 O     8      1.884796     13.236995      6.800440   6.0000  15.9994
     75    2 O     8     11.351134      1.884825      4.396689   6.0000  15.9994
     76    2 O     8      5.672142      0.000872      9.205011   6.0000  15.9994
     77    2 O     8      1.884950      3.775958      5.220240   6.0000  15.9994
     78    2 O     8      0.000893     13.236985      0.411247   6.0000  15.9994
     79    2 O     8      5.672121      1.884947      2.813400   6.0000  15.9994
     80    2 O     8     11.351116      0.000887      7.622511   6.0000  15.9994
     81    2 O     8      3.775989      0.000925      7.624441   6.0000  15.9994
     82    2 O     8     13.236996      1.884796      2.814580   6.0000  15.9994
     83    2 O     8     13.236987      0.000893      9.203771   6.0000  15.9994
     84    2 O     8      3.775962      1.884951      4.394776   6.0000  15.9994
     85    2 O     8      1.884944      5.672109      6.801620   6.0000  15.9994
     86    2 O     8      0.000886     11.351118      1.992510   6.0000  15.9994
     87    2 O     8      0.000870      5.672147      0.410010   6.0000  15.9994
     88    2 O     8      1.884826     11.351132      5.218331   6.0000  15.9994
     89    2 O     8      0.000870      7.566957      1.993753   6.0000  15.9994
     90    2 O     8      1.884947      9.462863      6.798596   6.0000  15.9994
     91    2 O     8      7.566988      1.884944      4.397873   6.0000  15.9994
     92    2 O     8      9.462838      0.000924      9.201902   6.0000  15.9994
     93    2 O     8      1.884943      7.566984      5.217151   6.0000  15.9994
     94    2 O     8      0.000925      9.462834      0.413121   6.0000  15.9994
     95    2 O     8      9.462862      1.884949      2.816425   6.0000  15.9994
     96    2 O     8      7.566960      0.000871      7.621271   6.0000  15.9994
     97    2 O     8      3.769749      0.001584      1.992917   6.0000  15.9994
     98    2 O     8     13.237592      1.887570      6.799954   6.0000  15.9994
     99    2 O     8      0.001610      5.655984      4.396223   6.0000  15.9994
    100    2 O     8      1.887550     11.353729      9.204143   6.0000  15.9994
    101    2 O     8     13.237588      0.001593      5.218756   6.0000  15.9994
    102    2 O     8      3.769852      1.887596      0.410923   6.0000  15.9994
    103    2 O     8      1.887738      5.656247      2.815112   6.0000  15.9994
    104    2 O     8      0.001579     11.353761      7.622086   6.0000  15.9994
    105    2 O     8     11.353729      1.887551      0.410875   6.0000  15.9994
    106    2 O     8      5.655978      0.001611      5.218795   6.0000  15.9994
    107    2 O     8      5.656254      1.887736      6.799905   6.0000  15.9994
    108    2 O     8     11.353760      0.001580      1.992933   6.0000  15.9994
    109    2 O     8      1.887595      3.769852      9.204097   6.0000  15.9994
    110    2 O     8      0.001593     13.237587      4.396261   6.0000  15.9994
    111    2 O     8      0.001584      3.769748      7.622101   6.0000  15.9994
    112    2 O     8      1.887570     13.237592      2.815065   6.0000  15.9994
    113    2 O     8      3.770040      3.775997      1.991049   6.0000  15.9994
    114    2 O     8     13.237587     13.236989      6.800011   6.0000  15.9994
    115    2 O     8     11.350949      5.656218      4.396207   6.0000  15.9994
    116    2 O     8      5.672113     11.353617      9.205376   6.0000  15.9994
    117    2 O     8     13.237557      3.775991      5.220695   6.0000  15.9994
    118    2 O     8      3.769749     13.236990      0.410837   6.0000  15.9994
    119    2 O     8      5.672164      5.656770      2.813568   6.0000  15.9994
    120    2 O     8     11.351134     11.353732      7.622083   6.0000  15.9994
    121    2 O     8     11.353763     13.236993      0.410822   6.0000  15.9994
    122    2 O     8      5.656501      3.776142      5.220512   6.0000  15.9994
    123    2 O     8      3.775962     11.353611      7.623990   6.0000  15.9994
    124    2 O     8     13.236969      5.656000      2.815042   6.0000  15.9994
    125    2 O     8      5.656008     13.236971      6.799973   6.0000  15.9994
    126    2 O     8     11.353611      3.775958      1.991029   6.0000  15.9994
    127    2 O     8     13.236995     11.353762      9.204197   6.0000  15.9994
    128    2 O     8      3.776137      5.656505      4.394508   6.0000  15.9994
    129    2 O     8      5.656772      5.672170      6.801454   6.0000  15.9994
    130    2 O     8     11.353732     11.351135      1.992938   6.0000  15.9994
    131    2 O     8     13.236992      3.769747      9.204182   6.0000  15.9994
    132    2 O     8      3.775988     13.237559      4.394323   6.0000  15.9994
    133    2 O     8     11.353617      5.672112      0.409645   6.0000  15.9994
    134    2 O     8      5.656207     11.350949      5.218810   6.0000  15.9994
    135    2 O     8      3.776005      3.770040      7.623975   6.0000  15.9994
    136    2 O     8     13.236986     13.237587      2.815008   6.0000  15.9994
    137    2 O     8     13.237594     11.351115      5.218761   6.0000  15.9994
    138    2 O     8      3.770085      5.672092      0.409633   6.0000  15.9994
    139    2 O     8      5.672150     13.237609      2.813766   6.0000  15.9994
    140    2 O     8     11.351089      3.769844      7.622133   6.0000  15.9994
    141    2 O     8      3.769843     11.351091      1.992889   6.0000  15.9994
    142    2 O     8     13.237611      5.672144      6.801255   6.0000  15.9994
    143    2 O     8     11.351118     13.237594      4.396263   6.0000  15.9994
    144    2 O     8      5.672102      3.770085      9.205389   6.0000  15.9994
    145    2 O     8      3.770082      7.567001      1.994125   6.0000  15.9994
    146    2 O     8     13.237557      9.462837      6.798141   6.0000  15.9994
    147    2 O     8      7.566933      5.656741      4.397703   6.0000  15.9994
    148    2 O     8      9.462861     11.353618      9.202353   6.0000  15.9994
    149    2 O     8     13.237612      7.566954      5.217517   6.0000  15.9994
    150    2 O     8      3.770030      9.462821      0.412653   6.0000  15.9994
    151    2 O     8      9.462679      5.656507      2.816708   6.0000  15.9994
    152    2 O     8      7.566984     11.353619      7.620903   6.0000  15.9994
    153    2 O     8     11.353617      9.462864      0.412668   6.0000  15.9994
    154    2 O     8      5.656739      7.566923      5.217315   6.0000  15.9994
    155    2 O     8      5.656512      9.462677      6.798308   6.0000  15.9994
    156    2 O     8     11.353619      7.566988      1.994116   6.0000  15.9994
    157    2 O     8      9.462818      3.770031      9.202367   6.0000  15.9994
    158    2 O     8      7.566953     13.237613      4.397508   6.0000  15.9994
    159    2 O     8      7.567001      3.770085      7.620892   6.0000  15.9994
    160    2 O     8      9.462836     13.237557      2.816884   6.0000  15.9994
    161    2 O     8      7.582807      0.001606      1.992507   6.0000  15.9994
    162    2 O     8      9.468716      1.887594      6.800321   6.0000  15.9994
    163    2 O     8      0.001583      9.468813      4.396652   6.0000  15.9994
    164    2 O     8      1.887724      7.582574      9.203699   6.0000  15.9994
    165    2 O     8      9.468814      0.001585      5.218367   6.0000  15.9994
    166    2 O     8      7.582577      1.887723      0.411320   6.0000  15.9994
    167    2 O     8      1.887591      9.468715      2.814698   6.0000  15.9994
    168    2 O     8      0.001607      7.582806      7.622511   6.0000  15.9994
    169    2 O     8      7.582302      3.776127      1.990775   6.0000  15.9994
    170    2 O     8      9.468814     13.236993      6.800405   6.0000  15.9994
    171    2 O     8     11.351089      9.468725      4.396624   6.0000  15.9994
    172    2 O     8      5.672153      7.582075      9.205207   6.0000  15.9994
    173    2 O     8      9.468538      3.775996      5.220244   6.0000  15.9994
    174    2 O     8      7.582806     13.236973      0.411249   6.0000  15.9994
    175    2 O     8      5.672089      9.468500      2.813406   6.0000  15.9994
    176    2 O     8     11.350964      7.582589      7.622530   6.0000  15.9994
    177    2 O     8      3.776124      7.582303      7.624241   6.0000  15.9994
    178    2 O     8     13.236991      9.468814      2.814614   6.0000  15.9994
    179    2 O     8     13.236972      7.582807      9.203770   6.0000  15.9994
    180    2 O     8      3.775992      9.468534      4.394774   6.0000  15.9994
    181    2 O     8      9.468500      5.672098      6.801608   6.0000  15.9994
    182    2 O     8      7.582590     11.350966      1.992489   6.0000  15.9994
    183    2 O     8      7.582075      5.672163      0.409813   6.0000  15.9994
    184    2 O     8      9.468725     11.351090      5.218396   6.0000  15.9994
    185    2 O     8      7.582081      7.566942      1.993948   6.0000  15.9994
    186    2 O     8      9.468545      9.462828      6.798590   6.0000  15.9994
    187    2 O     8      7.566987      9.468504      4.397859   6.0000  15.9994
    188    2 O     8      9.462698      7.582321      9.202088   6.0000  15.9994
    189    2 O     8      9.468501      7.567007      5.217160   6.0000  15.9994
    190    2 O     8      7.582317      9.462696      0.412934   6.0000  15.9994
    191    2 O     8      9.462822      9.468545      2.816433   6.0000  15.9994
    192    2 O     8      7.566944      7.582082      7.621074   6.0000  15.9994



 SCF PARAMETERS         Density guess:                                   RESTART
                        --------------------------------------------------------
                        max_scf:                                              40
                        max_scf_history:                                       0
                        max_diis:                                              4
                        --------------------------------------------------------
                        eps_scf:                                        1.00E-06
                        eps_scf_history:                                0.00E+00
                        eps_diis:                                       1.00E-01
                        eps_eigval:                                     1.00E-05
                        --------------------------------------------------------
                        level_shift [a.u.]:                             0.000000
                        --------------------------------------------------------
                        Outer loop SCF in use 
                        No variables optimised in outer loop
                        eps_scf                                         1.00E-06
                        max_scf                                               60
                        No outer loop optimization
                        step_size                                       5.00E-01

 PW_GRID| Information for grid number                                          1
 PW_GRID| Grid distributed over                                   128 processors
 PW_GRID| Real space group dimensions                                   128    1
 PW_GRID| the grid is blocked:                                                NO
 PW_GRID| Cutoff [a.u.]                                                    300.0
 PW_GRID| spherical cutoff:                                                   NO
 PW_GRID|   Bounds   1           -112     112                Points:         225
 PW_GRID|   Bounds   2           -112     112                Points:         225
 PW_GRID|   Bounds   3            -72      71                Points:         144
 PW_GRID| Volume element (a.u.^3)  0.2035E-02     Volume (a.u.^3)     14833.7304
 PW_GRID| Grid span                                                    FULLSPACE
 PW_GRID|   Distribution                         Average         Max         Min
 PW_GRID|   G-Vectors                            56953.1       57150       56925
 PW_GRID|   G-Rays                                 253.1         254         253
 PW_GRID|   Real Space Points                    56953.1       64800       32400

 PW_GRID| Information for grid number                                          2
 PW_GRID| Number of the reference grid                                         1
 PW_GRID| Grid distributed over                                   128 processors
 PW_GRID| Real space group dimensions                                   128    1
 PW_GRID| the grid is blocked:                                                NO
 PW_GRID| Cutoff [a.u.]                                                    100.0
 PW_GRID| spherical cutoff:                                                   NO
 PW_GRID|   Bounds   1            -67      67                Points:         135
 PW_GRID|   Bounds   2            -67      67                Points:         135
 PW_GRID|   Bounds   3            -40      40                Points:          81
 PW_GRID| Volume element (a.u.^3)  0.1005E-01     Volume (a.u.^3)     14833.7304
 PW_GRID| Grid span                                                    FULLSPACE
 PW_GRID|   Distribution                         Average         Max         Min
 PW_GRID|   G-Vectors                            11533.0       12150       10800
 PW_GRID|   G-Rays                                  85.4          90          80
 PW_GRID|   Real Space Points                    11533.0       21870       10935

 PW_GRID| Information for grid number                                          3
 PW_GRID| Number of the reference grid                                         1
 PW_GRID| Grid distributed over                                   128 processors
 PW_GRID| Real space group dimensions                                     8   16
 PW_GRID| the grid is blocked:                                                NO
 PW_GRID| Cutoff [a.u.]                                                     33.3
 PW_GRID| spherical cutoff:                                                   NO
 PW_GRID|   Bounds   1            -37      37                Points:          75
 PW_GRID|   Bounds   2            -37      37                Points:          75
 PW_GRID|   Bounds   3            -24      23                Points:          48
 PW_GRID| Volume element (a.u.^3)  0.5494E-01     Volume (a.u.^3)     14833.7304
 PW_GRID| Grid span                                                    FULLSPACE
 PW_GRID|   Distribution                         Average         Max         Min
 PW_GRID|   G-Vectors                             2109.4        2475        1725
 PW_GRID|   G-Rays                                  28.1          33          23
 PW_GRID|   Real Space Points                     2109.4        2400        1728

 PW_GRID| Information for grid number                                          4
 PW_GRID| Number of the reference grid                                         1
 PW_GRID| Grid distributed over                                   128 processors
 PW_GRID| Real space group dimensions                                     8   16
 PW_GRID| the grid is blocked:                                                NO
 PW_GRID| Cutoff [a.u.]                                                     11.1
 PW_GRID| spherical cutoff:                                                   NO
 PW_GRID|   Bounds   1            -22      22                Points:          45
 PW_GRID|   Bounds   2            -22      22                Points:          45
 PW_GRID|   Bounds   3            -13      13                Points:          27
 PW_GRID| Volume element (a.u.^3)  0.2713         Volume (a.u.^3)     14833.7304
 PW_GRID| Grid span                                                    FULLSPACE
 PW_GRID|   Distribution                         Average         Max         Min
 PW_GRID|   G-Vectors                              427.1         585         270
 PW_GRID|   G-Rays                                   9.5          13           6
 PW_GRID|   Real Space Points                      427.1         486         270

 POISSON| Solver                                                        PERIODIC
 POISSON| Periodicity                                                        XYZ

 RS_GRID| Information for grid number                                          1
 RS_GRID|   Bounds   1           -112     112                Points:         225
 RS_GRID|   Bounds   2           -112     112                Points:         225
 RS_GRID|   Bounds   3            -72      71                Points:         144
 RS_GRID| Real space distribution over                                  8 groups
 RS_GRID| Real space distribution along direction                              1
 RS_GRID| Border size                                                         26
 RS_GRID| Real space distribution over                                 16 groups
 RS_GRID| Real space distribution along direction                              2
 RS_GRID| Border size                                                         26
 RS_GRID|   Distribution                         Average         Max         Min
 RS_GRID|   Planes                                  80.1          81          80
 RS_GRID|   Distribution                         Average         Max         Min
 RS_GRID|   Planes                                  66.1          67          66

 RS_GRID| Information for grid number                                          2
 RS_GRID|   Bounds   1            -67      67                Points:         135
 RS_GRID|   Bounds   2            -67      67                Points:         135
 RS_GRID|   Bounds   3            -40      40                Points:          81
 RS_GRID| Real space distribution over                                  8 groups
 RS_GRID| Real space distribution along direction                              1
 RS_GRID| Border size                                                         24
 RS_GRID| Real space distribution over                                 16 groups
 RS_GRID| Real space distribution along direction                              2
 RS_GRID| Border size                                                         24
 RS_GRID|   Distribution                         Average         Max         Min
 RS_GRID|   Planes                                  64.9          65          64
 RS_GRID|   Distribution                         Average         Max         Min
 RS_GRID|   Planes                                  56.4          57          56

 RS_GRID| Information for grid number                                          3
 RS_GRID|   Bounds   1            -37      37                Points:          75
 RS_GRID|   Bounds   2            -37      37                Points:          75
 RS_GRID|   Bounds   3            -24      23                Points:          48
 RS_GRID| Real space fully replicated
 RS_GRID| Group size                                                           1

 RS_GRID| Information for grid number                                          4
 RS_GRID|   Bounds   1            -22      22                Points:          45
 RS_GRID|   Bounds   2            -22      22                Points:          45
 RS_GRID|   Bounds   3            -13      13                Points:          27
 RS_GRID| Real space fully replicated
 RS_GRID| Group size                                                           1

 BFGS| Use rational function optimization for step estimation:                NO
 BFGS| Use model Hessian for initial guess:                                  YES
 BFGS| Restart Hessian:                                                       NO
 BFGS| Trust radius:                                                       0.472

 *******************************************************************************
 ***                     STARTING GEOMETRY OPTIMIZATION                      ***
 ***                                   BFGS                                  ***
 *******************************************************************************

 Spin 1

 Number of electrons:                                                        768
 Number of occupied orbitals:                                                768
 Number of molecular orbitals:                                               768

 Spin 2

 Number of electrons:                                                        767
 Number of occupied orbitals:                                                767
 Number of molecular orbitals:                                               767

 Number of orbital functions:                                               3328
 Number of independent orbital functions:                                   3328

 Extrapolation method: initial_guess

 *** WARNING in qs_initial_guess.F:306 :: User requested to restart the    ***
 *** wavefunction from the file named: tio2-RESTART.wfn. This file does    ***
 *** not exist. Please check the existence of the file or change properly  ***
 *** the value of the keyword WFN_RESTART_FILE_NAME. Calculation continues ***
 *** using ATOMIC GUESS.                                                   ***


 Atomic guess: The first density matrix is obtained in terms of atomic orbitals
               and electronic configurations assigned to each atomic kind

 Guess for atomic kind: Ti

 Electronic structure
    Total number of core electrons                                         10.00
    Total number of valence electrons                                      12.00
    Total number of electrons                                              22.00
    Multiplicity                                                   not specified
    S   [  2.00  2.00] 2.00  2.00
    P   [  6.00] 6.00
    D      2.00


 *******************************************************************************
                  Iteration          Convergence                     Energy [au]
 *******************************************************************************
                          1         2.59099                     -56.573945749309
                          2        0.737518                     -57.461623245624
                          3        0.123244E-01                 -57.676656834797
                          4        0.338536E-02                 -57.676690535970
                          5        0.252157E-03                 -57.676697146183
                          6        0.162704E-05                 -57.676697160103
                          7        0.846593E-06                 -57.676697160104

 Energy components [Hartree]           Total Energy ::          -57.676697160104
                                        Band Energy ::          -13.440549799540
                                     Kinetic Energy ::           25.008468428381
                                   Potential Energy ::          -82.685165588485
                                      Virial (-V/T) ::            3.306286661467
                                        Core Energy ::          -97.155838374470
                                          XC Energy ::           -6.919409696495
                                     Coulomb Energy ::           46.398550910862
                       Total Pseudopotential Energy ::         -122.259340742080
                       Local Pseudopotential Energy ::         -118.928992669456
                    Nonlocal Pseudopotential Energy ::           -3.330348072625
                                        Confinement ::            0.950339392289

 Orbital energies  State     L     Occupation   Energy[a.u.]          Energy[eV]

                       1     0          2.000      -2.312566          -62.928123
                       2     0          2.000      -0.123060           -3.348633

                       1     1          6.000      -1.385567          -37.703193

                       1     2          2.000      -0.127948           -3.481643


 Total Electron Density at R=0:                                         0.004726

 Guess for atomic kind: O

 Electronic structure
    Total number of core electrons                                          2.00
    Total number of valence electrons                                       6.00
    Total number of electrons                                               8.00
    Multiplicity                                                   not specified
    S   [  2.00] 2.00
    P      4.00


 *******************************************************************************
                  Iteration          Convergence                     Energy [au]
 *******************************************************************************
                          1        0.702811                     -15.577904332270
                          2        0.612408                     -15.588447180504
                          3        0.955344E-02                 -15.655871208406
                          4        0.223754E-02                 -15.655885053552
                          5        0.157183E-02                 -15.655885461027
                          6        0.124953E-02                 -15.655885607150
                          7        0.312011E-06                 -15.655885858066

 Energy components [Hartree]           Total Energy ::          -15.655885858066
                                        Band Energy ::           -2.983128125584
                                     Kinetic Energy ::           11.754765134683
                                   Potential Energy ::          -27.410650992749
                                      Virial (-V/T) ::            2.331875684345
                                        Core Energy ::          -26.153522949072
                                          XC Energy ::           -3.157392363346
                                     Coulomb Energy ::           13.655029454351
                       Total Pseudopotential Energy ::          -37.943026860963
                       Local Pseudopotential Energy ::          -39.220419683052
                    Nonlocal Pseudopotential Energy ::            1.277392822089
                                        Confinement ::            0.347387772086

 Orbital energies  State     L     Occupation   Energy[a.u.]          Energy[eV]

                       1     0          2.000      -0.861522          -23.443215

                       1     1          4.000      -0.315021           -8.572154


 Total Electron Density at R=0:                                         0.000093

 Spin 1
 Re-scaling the density matrix to get the right number of electrons for spin 1
                  # Electrons              Trace(P)               Scaling factor
                          768               768.001                        1.000

 Spin 2
 Re-scaling the density matrix to get the right number of electrons for spin 2
                  # Electrons              Trace(P)               Scaling factor
                          767               768.001                        0.999


 SCF WAVEFUNCTION OPTIMIZATION

  ----------------------------------- OT ---------------------------------------
  Minimizer      : DIIS                : direct inversion
                                         in the iterative subspace
                                         using   7 DIIS vectors
                                         safer DIIS on
  Preconditioner : FULL_SINGLE_INVERSE : inversion of 
                                         H + eS - 2*(Sc)(c^T*H*c+const)(Sc)^T
  Precond_solver : DEFAULT
  stepsize       :    0.08000000                  energy_gap     :    0.08000000
  eps_taylor     :   0.10000E-15                  max_taylor     :             4
  ----------------------------------- OT ---------------------------------------

  Step     Update method      Time    Convergence         Total energy    Change
  ------------------------------------------------------------------------------
     1 OT DIIS     0.80E-01    2.1     0.01006279     -5658.6494022866 -5.66E+03
     2 OT DIIS     0.80E-01    1.5     0.00726244     -5693.7273055559 -3.51E+01
     3 OT DIIS     0.80E-01    1.5     0.00457953     -5726.7708791405 -3.30E+01
     4 OT DIIS     0.80E-01    1.5     0.00365034     -5736.9288623071 -1.02E+01
     5 OT DIIS     0.80E-01    1.5     0.00267086     -5748.4019328187 -1.15E+01
     6 OT DIIS     0.80E-01    1.5     0.00220146     -5755.3245433680 -6.92E+00
     7 OT DIIS     0.80E-01    1.5     0.00184159     -5761.5226266994 -6.20E+00
     8 OT DIIS     0.80E-01    1.5     0.00147512     -5767.4769614148 -5.95E+00
     9 OT DIIS     0.80E-01    1.5     0.00127849     -5771.0900061680 -3.61E+00
    10 OT DIIS     0.80E-01    1.5     0.00099675     -5774.3732711737 -3.28E+00
    11 OT DIIS     0.80E-01    1.5     0.00090970     -5775.1893966725 -8.16E-01
    12 OT DIIS     0.80E-01    1.5     0.00073600     -5777.0106604870 -1.82E+00
    13 OT DIIS     0.80E-01    1.5     0.00060575     -5778.3471447464 -1.34E+00
    14 OT DIIS     0.80E-01    1.5     0.00050173     -5779.2831646197 -9.36E-01
    15 OT DIIS     0.80E-01    1.5     0.00045298     -5779.7669504318 -4.84E-01
    16 OT DIIS     0.80E-01    1.5     0.00038240     -5780.2981137047 -5.31E-01
    17 OT DIIS     0.80E-01    1.5     0.00035608     -5780.5123717456 -2.14E-01
    18 OT DIIS     0.80E-01    1.5     0.00030856     -5780.8448037456 -3.32E-01
    19 OT DIIS     0.80E-01    1.5     0.00027021     -5781.0692231436 -2.24E-01
    20 OT DIIS     0.80E-01    1.5     0.00025648     -5781.1800854042 -1.11E-01
    21 OT DIIS     0.80E-01    1.5     0.00023748     -5781.3592325572 -1.79E-01
    22 OT DIIS     0.80E-01    1.5     0.00022137     -5781.4634935506 -1.04E-01
    23 OT DIIS     0.80E-01    1.5     0.00019737     -5781.6372264506 -1.74E-01
    24 OT DIIS     0.80E-01    1.5     0.00017544     -5781.7470181120 -1.10E-01
    25 OT DIIS     0.80E-01    1.5     0.00017789     -5781.7701131586 -2.31E-02
    26 OT DIIS     0.80E-01    1.5     0.00014514     -5781.8892733408 -1.19E-01
    27 OT DIIS     0.80E-01    1.5     0.00014246     -5781.9252543973 -3.60E-02
    28 OT DIIS     0.80E-01    1.5     0.00013402     -5781.9655774744 -4.03E-02
    29 OT SD       0.80E-01    1.4     0.00013135     -5782.0075767570 -4.20E-02
    30 OT DIIS     0.80E-01    1.5     0.00012655     -5782.0144853444 -6.91E-03
    31 OT DIIS     0.80E-01    1.5     0.00012105     -5782.0612684892 -4.68E-02
    32 OT DIIS     0.80E-01    1.5     0.00010771     -5782.0957399444 -3.45E-02
    33 OT DIIS     0.80E-01    1.5     0.00009679     -5782.1323068477 -3.66E-02
    34 OT DIIS     0.80E-01    1.5     0.00009002     -5782.1632493959 -3.09E-02
    35 OT DIIS     0.80E-01    1.5     0.00008525     -5782.1821635763 -1.89E-02
    36 OT DIIS     0.80E-01    1.5     0.00007961     -5782.1983689632 -1.62E-02
    37 OT DIIS     0.80E-01    1.5     0.00007791     -5782.2141212629 -1.58E-02
    38 OT DIIS     0.80E-01    1.5     0.00007584     -5782.2189340951 -4.81E-03
    39 OT DIIS     0.80E-01    1.5     0.00007343     -5782.2313877704 -1.25E-02
    40 OT DIIS     0.80E-01    1.5     0.00006900     -5782.2525266274 -2.11E-02

  Leaving inner SCF loop after reaching    40 steps.


  Electronic density on regular grids:      -1534.9999999999        0.0000000001
  Core density on regular grids:             1535.9999999995       -0.0000000005
  Total charge density on r-space grids:        0.9999999996
  Total charge density g-space grids:           0.9999999996

  Overlap energy of the core charge distribution:               0.00000000000327
  Self energy of the core charge distribution:             -12156.89556134359555
  Core Hamiltonian energy:                                   3260.89581466997106
  Hartree energy:                                            4029.37586592927482
  Exchange-correlation energy:                               -922.38252981714368

  DFT+U energy:                                                 6.75388393404489

  Total energy:                                             -5782.25252662744424

  outer SCF iter =    1 RMS gradient =   0.69E-04 energy =      -5782.2525266274

  ----------------------------------- OT ---------------------------------------
[...]
    40 OT SD       0.80E-01    1.5     0.00000112     -5782.2385691235 -5.15E-07

  Leaving inner SCF loop after reaching    40 steps.


  Electronic density on regular grids:      -1534.9999999999        0.0000000001
  Core density on regular grids:             1535.9999999995       -0.0000000005
  Total charge density on r-space grids:        0.9999999996
  Total charge density g-space grids:           0.9999999996

  Overlap energy of the core charge distribution:               0.00000000003297
  Self energy of the core charge distribution:             -12156.89556134359555
  Core Hamiltonian energy:                                   3261.73255320713588
  Hartree energy:                                            4028.84690256615067
  Exchange-correlation energy:                               -922.64617227516555

  DFT+U energy:                                                 6.72370872194180

  Total energy:                                             -5782.23856912350038

  outer SCF iter =    2 RMS gradient =   0.11E-05 energy =      -5782.2385691235

  ----------------------------------- OT ---------------------------------------
  Minimizer      : DIIS                : direct inversion
                                         in the iterative subspace
                                         using   7 DIIS vectors
                                         safer DIIS on
  Preconditioner : FULL_SINGLE_INVERSE : inversion of 
                                         H + eS - 2*(Sc)(c^T*H*c+const)(Sc)^T
  Precond_solver : DEFAULT
  stepsize       :    0.08000000                  energy_gap     :    0.08000000
  eps_taylor     :   0.10000E-15                  max_taylor     :             4
  ----------------------------------- OT ---------------------------------------

  Step     Update method      Time    Convergence         Total energy    Change
  ------------------------------------------------------------------------------
     1 OT DIIS     0.80E-01    3.5     0.00000112     -5782.2385696390 -5.15E-07
     2 OT SD       0.80E-01    1.3     0.00000112     -5782.2385701550 -5.16E-07
     3 OT SD       0.80E-01    1.4     0.00000112     -5782.2385706716 -5.17E-07
     4 OT SD       0.80E-01    1.3     0.00000113     -5782.2385711888 -5.17E-07
     5 OT SD       0.80E-01    1.3     0.00000113     -5782.2385717067 -5.18E-07
     6 OT SD       0.80E-01    1.3     0.00000113     -5782.2385722252 -5.18E-07
     7 OT SD       0.80E-01    1.3     0.00000113     -5782.2385727443 -5.19E-07
     8 OT SD       0.80E-01    1.3     0.00000113     -5782.2385732641 -5.20E-07
     9 OT SD       0.80E-01    1.3     0.00000113     -5782.2385737846 -5.20E-07
    10 OT SD       0.80E-01    1.3     0.00000113     -5782.2385743058 -5.21E-07
    11 OT SD       0.80E-01    1.3     0.00000113     -5782.2385748277 -5.22E-07
    12 OT SD       0.80E-01    1.3     0.00000113     -5782.2385753502 -5.23E-07
    13 OT SD       0.80E-01    1.3     0.00000113     -5782.2385758735 -5.23E-07
    14 OT SD       0.80E-01    1.3     0.00000113     -5782.2385763975 -5.24E-07
    15 OT SD       0.80E-01    1.3     0.00000113     -5782.2385769223 -5.25E-07
    16 OT SD       0.80E-01    1.3     0.00000113     -5782.2385774478 -5.25E-07
    17 OT SD       0.80E-01    1.3     0.00000114     -5782.2385779740 -5.26E-07
    18 OT SD       0.80E-01    1.3     0.00000114     -5782.2385785010 -5.27E-07
    19 OT SD       0.80E-01    1.3     0.00000114     -5782.2385790288 -5.28E-07
    20 OT SD       0.80E-01    1.4     0.00000114     -5782.2385795574 -5.29E-07
    21 OT SD       0.80E-01    1.3     0.00000114     -5782.2385800867 -5.29E-07
    22 OT SD       0.80E-01    1.3     0.00000114     -5782.2385806169 -5.30E-07
    23 OT SD       0.80E-01    1.3     0.00000114     -5782.2385811478 -5.31E-07
    24 OT SD       0.80E-01    1.3     0.00000114     -5782.2385816796 -5.32E-07
    25 OT SD       0.80E-01    1.4     0.00000114     -5782.2385822123 -5.33E-07
    26 OT SD       0.80E-01    1.3     0.00000114     -5782.2385827457 -5.33E-07
    27 OT SD       0.80E-01    1.3     0.00000114     -5782.2385832800 -5.34E-07
    28 OT SD       0.80E-01    1.3     0.00000115     -5782.2385838152 -5.35E-07
    29 OT SD       0.80E-01    1.3     0.00000115     -5782.2385843512 -5.36E-07
    30 OT SD       0.80E-01    1.3     0.00000115     -5782.2385848882 -5.37E-07
    31 OT SD       0.80E-01    1.3     0.00000115     -5782.2385854260 -5.38E-07
    32 OT SD       0.80E-01    1.3     0.00000115     -5782.2385859647 -5.39E-07
    33 OT SD       0.80E-01    1.4     0.00000115     -5782.2385865043 -5.40E-07
    34 OT SD       0.80E-01    1.4     0.00000115     -5782.2385870448 -5.41E-07
    35 OT SD       0.80E-01    1.3     0.00000115     -5782.2385875863 -5.41E-07
    36 OT SD       0.80E-01    1.3     0.00000115     -5782.2385881286 -5.42E-07
    37 OT SD       0.80E-01    1.3     0.00000115     -5782.2385886720 -5.43E-07
    38 OT SD       0.80E-01    1.3     0.00000115     -5782.2385892162 -5.44E-07
    39 OT SD       0.80E-01    1.3     0.00000116     -5782.2385897615 -5.45E-07
    40 OT SD       0.80E-01    1.3     0.00000116     -5782.2385903077 -5.46E-07

  Leaving inner SCF loop after reaching    40 steps.


  Electronic density on regular grids:      -1534.9999999999        0.0000000001
  Core density on regular grids:             1535.9999999995       -0.0000000005
  Total charge density on r-space grids:        0.9999999995
  Total charge density g-space grids:           0.9999999995

  Overlap energy of the core charge distribution:               0.00000000003297
  Self energy of the core charge distribution:             -12156.89556134359555
  Core Hamiltonian energy:                                   3261.73434127104929
  Hartree energy:                                            4028.84542287522572
  Exchange-correlation energy:                               -922.64645274448981

  DFT+U energy:                                                 6.72365963406000

  Total energy:                                             -5782.23859030771837

  outer SCF iter =    3 RMS gradient =   0.12E-05 energy =      -5782.2385903077

  ----------------------------------- OT ---------------------------------------
  Minimizer      : DIIS                : direct inversion
                                         in the iterative subspace
                                         using   7 DIIS vectors
                                         safer DIIS on
  Preconditioner : FULL_SINGLE_INVERSE : inversion of 
                                         H + eS - 2*(Sc)(c^T*H*c+const)(Sc)^T
  Precond_solver : DEFAULT
  stepsize       :    0.08000000                  energy_gap     :    0.08000000
  eps_taylor     :   0.10000E-15                  max_taylor     :             4
  ----------------------------------- OT ---------------------------------------

  Step     Update method      Time    Convergence         Total energy    Change
  ------------------------------------------------------------------------------
     1 OT DIIS     0.80E-01    3.4     0.00000116     -5782.2385908549 -5.47E-07
     2 OT SD       0.80E-01    1.3     0.00000116     -5782.2385914030 -5.48E-07
     3 OT SD       0.80E-01    1.3     0.00000116     -5782.2385919522 -5.49E-07
     4 OT SD       0.80E-01    1.3     0.00000116     -5782.2385925023 -5.50E-07
     5 OT SD       0.80E-01    1.4     0.00000116     -5782.2385930535 -5.51E-07
     6 OT SD       0.80E-01    1.3     0.00000116     -5782.2385936056 -5.52E-07
     7 OT SD       0.80E-01    1.4     0.00000116     -5782.2385941589 -5.53E-07
     8 OT SD       0.80E-01    1.3     0.00000117     -5782.2385947131 -5.54E-07
     9 OT SD       0.80E-01    1.3     0.00000117     -5782.2385952685 -5.55E-07
    10 OT SD       0.80E-01    1.3     0.00000117     -5782.2385958249 -5.56E-07
    11 OT SD       0.80E-01    1.3     0.00000117     -5782.2385963823 -5.57E-07
    12 OT SD       0.80E-01    1.3     0.00000117     -5782.2385969409 -5.59E-07
    13 OT SD       0.80E-01    1.3     0.00000117     -5782.2385975005 -5.60E-07
    14 OT SD       0.80E-01    1.3     0.00000117     -5782.2385980613 -5.61E-07
    15 OT SD       0.80E-01    1.3     0.00000117     -5782.2385986232 -5.62E-07
    16 OT SD       0.80E-01    1.3     0.00000117     -5782.2385991861 -5.63E-07
    17 OT SD       0.80E-01    1.3     0.00000118     -5782.2385997503 -5.64E-07
    18 OT SD       0.80E-01    1.4     0.00000118     -5782.2386003155 -5.65E-07
    19 OT SD       0.80E-01    1.4     0.00000118     -5782.2386008819 -5.66E-07
    20 OT SD       0.80E-01    1.3     0.00000118     -5782.2386014495 -5.68E-07
    21 OT SD       0.80E-01    1.3     0.00000118     -5782.2386020182 -5.69E-07
    22 OT SD       0.80E-01    1.3     0.00000118     -5782.2386025881 -5.70E-07
    23 OT SD       0.80E-01    1.3     0.00000118     -5782.2386031592 -5.71E-07
    24 OT SD       0.80E-01    1.3     0.00000118     -5782.2386037315 -5.72E-07
    25 OT SD       0.80E-01    1.3     0.00000119     -5782.2386043050 -5.74E-07
    26 OT SD       0.80E-01    1.3     0.00000119     -5782.2386048797 -5.75E-07
    27 OT SD       0.80E-01    1.3     0.00000119     -5782.2386054557 -5.76E-07
    28 OT SD       0.80E-01    1.3     0.00000119     -5782.2386060329 -5.77E-07
    29 OT SD       0.80E-01    1.4     0.00000119     -5782.2386066113 -5.78E-07
    30 OT SD       0.80E-01    1.3     0.00000119     -5782.2386071910 -5.80E-07
    31 OT SD       0.80E-01    1.4     0.00000119     -5782.2386077719 -5.81E-07
    32 OT SD       0.80E-01    1.3     0.00000119     -5782.2386083541 -5.82E-07
    33 OT SD       0.80E-01    1.3     0.00000120     -5782.2386089376 -5.84E-07
    34 OT SD       0.80E-01    1.3     0.00000120     -5782.2386095224 -5.85E-07
    35 OT SD       0.80E-01    1.3     0.00000120     -5782.2386101085 -5.86E-07
    36 OT SD       0.80E-01    1.3     0.00000120     -5782.2386106959 -5.87E-07
    37 OT SD       0.80E-01    1.3     0.00000120     -5782.2386112847 -5.89E-07
    38 OT SD       0.80E-01    1.4     0.00000120     -5782.2386118748 -5.90E-07
    39 OT SD       0.80E-01    1.3     0.00000120     -5782.2386124662 -5.91E-07
    40 OT SD       0.80E-01    1.3     0.00000121     -5782.2386130589 -5.93E-07

  Leaving inner SCF loop after reaching    40 steps.


  Electronic density on regular grids:      -1534.9999999999        0.0000000001
  Core density on regular grids:             1535.9999999995       -0.0000000005
  Total charge density on r-space grids:        0.9999999995
  Total charge density g-space grids:           0.9999999995

  Overlap energy of the core charge distribution:               0.00000000003297
  Self energy of the core charge distribution:             -12156.89556134359555
  Core Hamiltonian energy:                                   3261.73650505659498
  Hartree energy:                                            4028.84364080587102
  Exchange-correlation energy:                               -922.64679525054851

  DFT+U energy:                                                 6.72359767271047

  Total energy:                                             -5782.23861305893388

  outer SCF iter =    4 RMS gradient =   0.12E-05 energy =      -5782.2386130589

  ----------------------------------- OT ---------------------------------------
  Minimizer      : DIIS                : direct inversion
                                         in the iterative subspace
                                         using   7 DIIS vectors
                                         safer DIIS on
  Preconditioner : FULL_SINGLE_INVERSE : inversion of 
                                         H + eS - 2*(Sc)(c^T*H*c+const)(Sc)^T
  Precond_solver : DEFAULT
  stepsize       :    0.08000000                  energy_gap     :    0.08000000
  eps_taylor     :   0.10000E-15                  max_taylor     :             4
  ----------------------------------- OT ---------------------------------------

  Step     Update method      Time    Convergence         Total energy    Change
  ------------------------------------------------------------------------------
     1 OT DIIS     0.80E-01    3.4     0.00000121     -5782.2386136531 -5.94E-07
     2 OT SD       0.80E-01    1.3     0.00000121     -5782.2386142485 -5.95E-07
     3 OT SD       0.80E-01    1.3     0.00000121     -5782.2386148453 -5.97E-07
     4 OT SD       0.80E-01    1.4     0.00000121     -5782.2386154435 -5.98E-07
     5 OT SD       0.80E-01    1.3     0.00000121     -5782.2386160431 -6.00E-07
     6 OT SD       0.80E-01    1.3     0.00000121     -5782.2386166441 -6.01E-07
     7 OT SD       0.80E-01    1.3     0.00000122     -5782.2386172465 -6.02E-07
     8 OT SD       0.80E-01    1.3     0.00000122     -5782.2386178504 -6.04E-07
     9 OT SD       0.80E-01    1.3     0.00000122     -5782.2386184557 -6.05E-07
    10 OT SD       0.80E-01    1.3     0.00000122     -5782.2386190624 -6.07E-07
    11 OT SD       0.80E-01    1.4     0.00000122     -5782.2386196706 -6.08E-07
    12 OT SD       0.80E-01    1.3     0.00000122     -5782.2386202803 -6.10E-07
    13 OT SD       0.80E-01    1.3     0.00000122     -5782.2386208915 -6.11E-07
    14 OT SD       0.80E-01    1.3     0.00000123     -5782.2386215042 -6.13E-07
    15 OT SD       0.80E-01    1.3     0.00000123     -5782.2386221183 -6.14E-07
    16 OT SD       0.80E-01    1.3     0.00000123     -5782.2386227340 -6.16E-07
    17 OT SD       0.80E-01    1.4     0.00000123     -5782.2386233512 -6.17E-07
    18 OT SD       0.80E-01    1.3     0.00000123     -5782.2386239699 -6.19E-07
    19 OT SD       0.80E-01    1.3     0.00000123     -5782.2386245902 -6.20E-07
    20 OT SD       0.80E-01    1.3     0.00000123     -5782.2386252120 -6.22E-07
    21 OT SD       0.80E-01    1.3     0.00000124     -5782.2386258354 -6.23E-07
    22 OT SD       0.80E-01    1.3     0.00000124     -5782.2386264604 -6.25E-07
    23 OT SD       0.80E-01    1.3     0.00000124     -5782.2386270870 -6.27E-07
    24 OT DIIS     0.80E-01    1.4     0.00000124     -5782.2386277151 -6.28E-07
    25 OT SD       0.80E-01    1.5     0.00042561     -5782.1657255711  7.29E-02
    26 OT SD       0.80E-01    1.5     0.00016428     -5782.2131252128 -4.74E-02
    27 OT SD       0.80E-01    1.5     0.00009408     -5782.2215114147 -8.39E-03
    28 OT SD       0.80E-01    1.5     0.00006948     -5782.2245917585 -3.08E-03
    29 OT DIIS     0.80E-01    1.4     0.00005882     -5782.2263964609 -1.80E-03
    30 OT DIIS     0.80E-01    1.4     0.00004627     -5782.2374432581 -1.10E-02
    31 OT DIIS     0.80E-01    1.3     0.00000231     -5782.2386479952 -1.20E-03
    32 OT DIIS     0.80E-01    1.4     0.00000397     -5782.2386811268 -3.31E-05
    33 OT SD       0.80E-01    1.4     0.00001250     -5782.2387727916 -9.17E-05
    34 OT SD       0.80E-01    1.4     0.00000536     -5782.2388158076 -4.30E-05
    35 OT DIIS     0.80E-01    1.4     0.00000318     -5782.2388248992 -9.09E-06
    36 OT SD       0.80E-01    1.4     0.00001406     -5782.2387966881  2.82E-05
    37 OT SD       0.80E-01    1.4     0.00000605     -5782.2388511770 -5.45E-05
    38 OT SD       0.80E-01    1.4     0.00000360     -5782.2388627725 -1.16E-05
    39 OT SD       0.80E-01    1.4     0.00000278     -5782.2388673657 -4.59E-06
    40 OT SD       0.80E-01    1.4     0.00000250     -5782.2388703385 -2.97E-06

  Leaving inner SCF loop after reaching    40 steps.


  Electronic density on regular grids:      -1535.0000001830       -0.0000001830
  Core density on regular grids:             1535.9999999995       -0.0000000005
  Total charge density on r-space grids:        0.9999998165
  Total charge density g-space grids:           0.9999998165

  Overlap energy of the core charge distribution:               0.00000000003297
  Self energy of the core charge distribution:             -12156.89556134359555
  Core Hamiltonian energy:                                   3261.76942415703070
  Hartree energy:                                            4028.81663030220625
  Exchange-correlation energy:                               -922.65206790850448

  DFT+U energy:                                                 6.72270445435290

  Total energy:                                             -5782.23887033847768

  outer SCF iter =    5 RMS gradient =   0.25E-05 energy =      -5782.2388703385

  ----------------------------------- OT ---------------------------------------
  Minimizer      : DIIS                : direct inversion
                                         in the iterative subspace
                                         using   7 DIIS vectors
                                         safer DIIS on
  Preconditioner : FULL_SINGLE_INVERSE : inversion of 
                                         H + eS - 2*(Sc)(c^T*H*c+const)(Sc)^T
  Precond_solver : DEFAULT
  stepsize       :    0.08000000                  energy_gap     :    0.08000000
  eps_taylor     :   0.10000E-15                  max_taylor     :             4
  ----------------------------------- OT ---------------------------------------

  Step     Update method      Time    Convergence         Total energy    Change
  ------------------------------------------------------------------------------
     1 OT DIIS     0.80E-01    3.4     0.00000237     -5782.2388728144 -2.48E-06
     2 OT DIIS     0.80E-01    1.4     0.00000230     -5782.2388750012 -2.19E-06
     3 OT DIIS     0.80E-01    1.3     0.00000214     -5782.2388845834 -9.58E-06
     4 OT DIIS     0.80E-01    1.3     0.00000208     -5782.2388942740 -9.69E-06
     5 OT DIIS     0.80E-01    1.3     0.00000206     -5782.2389059033 -1.16E-05
     6 OT DIIS     0.80E-01    1.3     0.00000206     -5782.2389070301 -1.13E-06
     7 OT DIIS     0.80E-01    1.3     0.00000206     -5782.2389086623 -1.63E-06
     8 OT SD       0.80E-01    1.3     0.00000206     -5782.2389100275 -1.37E-06
     9 OT SD       0.80E-01    1.3     0.00000207     -5782.2389117703 -1.74E-06
    10 OT SD       0.80E-01    1.3     0.00000207     -5782.2389135145 -1.74E-06
    11 OT SD       0.80E-01    1.3     0.00000207     -5782.2389152610 -1.75E-06
    12 OT SD       0.80E-01    1.3     0.00000207     -5782.2389170100 -1.75E-06
    13 OT SD       0.80E-01    1.4     0.00000207     -5782.2389187618 -1.75E-06
    14 OT SD       0.80E-01    1.4     0.00000207     -5782.2389205170 -1.76E-06
    15 OT SD       0.80E-01    1.5     0.00000208     -5782.2389222755 -1.76E-06
    16 OT SD       0.80E-01    1.4     0.00000208     -5782.2389240378 -1.76E-06
    17 OT SD       0.80E-01    1.4     0.00000208     -5782.2389258039 -1.77E-06
    18 OT SD       0.80E-01    1.4     0.00000208     -5782.2389275741 -1.77E-06
    19 OT SD       0.80E-01    1.4     0.00000209     -5782.2389293486 -1.77E-06
    20 OT SD       0.80E-01    1.4     0.00000209     -5782.2389311275 -1.78E-06
    21 OT SD       0.80E-01    1.4     0.00000209     -5782.2389329110 -1.78E-06
    22 OT SD       0.80E-01    1.4     0.00000209     -5782.2389346992 -1.79E-06
    23 OT SD       0.80E-01    1.4     0.00000210     -5782.2389364922 -1.79E-06
    24 OT SD       0.80E-01    1.4     0.00000210     -5782.2389382903 -1.80E-06
    25 OT SD       0.80E-01    1.4     0.00000210     -5782.2389400935 -1.80E-06
    26 OT SD       0.80E-01    1.4     0.00000211     -5782.2389419019 -1.81E-06
    27 OT SD       0.80E-01    1.4     0.00000211     -5782.2389437156 -1.81E-06
    28 OT SD       0.80E-01    1.4     0.00000211     -5782.2389455348 -1.82E-06
    29 OT SD       0.80E-01    1.4     0.00000212     -5782.2389473595 -1.82E-06
    30 OT SD       0.80E-01    1.4     0.00000212     -5782.2389491898 -1.83E-06
    31 OT SD       0.80E-01    1.4     0.00000212     -5782.2389510259 -1.84E-06
    32 OT SD       0.80E-01    1.4     0.00000213     -5782.2389528678 -1.84E-06
