     192
 i =        6, E =     -5782.5699899428
Ti         0.0004312346        0.0002352517       -0.0000223248
Ti        -0.0000834460        0.0002980834       -0.0000558346
Ti         0.0000014450       -0.0000296232        0.0032806695
Ti        -0.0002120509       -0.0002241192       -0.0031096321
Ti         0.0002112027        0.0004024408       -0.0000641474
Ti         0.0000400901       -0.0004801661        0.0002310418
Ti         0.0000896711        0.0005624342        0.0028837682
Ti         0.0001673047        0.0003818682       -0.0028180248
Ti         0.0001216190        0.0002753226       -0.0029141549
Ti         0.0003253180        0.0002656837        0.0033694407
Ti         0.0001758472       -0.0002245824       -0.0001941219
Ti        -0.0003339125        0.0003548711        0.0000379137
Ti         0.0004459731        0.0003034264        0.0000246193
Ti        -0.0000672865       -0.0002745335        0.0000198522
Ti         0.0000030468        0.0004429276       -0.0035049601
Ti         0.0003158614        0.0005059806        0.0027033143
Ti         0.0000611072       -0.0001105776        0.0000713453
Ti         0.0003377063       -0.0003557291       -0.0001862567
Ti         0.0003001339        0.0005231500        0.0026334570
Ti         0.0001402820        0.0002646113       -0.0033537099
Ti         0.0003308804       -0.0006241160        0.0001831881
Ti        -0.0002165058        0.0002616353        0.0000532478
Ti        -0.0003198164       -0.0001841804        0.0027987451
Ti        -0.0002621367       -0.0000921777       -0.0028970899
Ti        -0.0001531923       -0.0003498348       -0.0026968111
Ti        -0.0000984077       -0.0004080900        0.0032902905
Ti        -0.0001446398        0.0002333003       -0.0001798314
Ti        -0.0002499824        0.0000813107        0.0002076169
Ti         0.0004337660        0.0000846407        0.0001889660
Ti        -0.0002571215        0.0000936189       -0.0000100128
Ti        -0.0001936018       -0.0001169061        0.0025212462
Ti        -0.0001746974       -0.0002878834       -0.0023601409
Ti        -0.0003677794       -0.0002676125       -0.0026387015
Ti        -0.0000006902       -0.0002888521        0.0029560513
Ti        -0.0000865233        0.0002952987       -0.0001088302
Ti        -0.0002767849       -0.0004807980        0.0002244603
Ti        -0.0003061628       -0.0004204154        0.0032435412
Ti        -0.0001032725       -0.0002194322       -0.0022221642
Ti         0.0005827473       -0.0004217210        0.0000083834
Ti        -0.0001964011        0.0004208230       -0.0000910477
Ti        -0.0000343337        0.0001690807       -0.0001497344
Ti        -0.0001227390        0.0002061772        0.0001843930
Ti        -0.0002668400       -0.0002875278       -0.0031491783
Ti        -0.0001095179       -0.0002402745        0.0025042706
Ti         0.0003273869       -0.0002113373        0.0000309051
Ti         0.0000429306       -0.0002910608       -0.0000851392
Ti         0.0001284671        0.0004195944        0.0021729756
Ti         0.0000265975        0.0002229002       -0.0030068851
Ti        -0.0000113499        0.0001092564       -0.0029781758
Ti         0.0002491578        0.0002583149        0.0025745496
Ti         0.0000559758       -0.0001911653       -0.0000416373
Ti        -0.0003738852       -0.0001816489       -0.0000465980
Ti         0.0001604397        0.0003073308        0.0027833076
Ti         0.0001499825        0.0001074090       -0.0024435258
Ti         0.0000623050       -0.0002874639       -0.0000582635
Ti        -0.0002492175       -0.0004081429        0.0001758859
Ti         0.0000438676        0.0002866032       -0.0026566668
Ti         0.0000924889        0.0003215562        0.0026409895
Ti        -0.0002343929        0.0003477676       -0.0000216242
Ti         0.0001096275       -0.0003736694       -0.0000868721
Ti        -0.0001309916       -0.0004914238        0.0001837464
Ti        -0.0000615441        0.0002790022       -0.0001833468
Ti        -0.0001656167       -0.0003086660        0.0025909658
Ti        -0.0002495788       -0.0004180722       -0.0023860110
O        -0.0000896838       -0.0001194545       -0.0010807411
O        -0.0000289767       -0.0003028063        0.0005617997
O         0.0001400347        0.0001219485       -0.0008698443
O        -0.0003480141        0.0000427057        0.0017714970
O         0.0002220909        0.0001572950        0.0009450118
O         0.0001374500       -0.0002240280       -0.0020557340
O        -0.0002806442        0.0000289340       -0.0005871983
O         0.0000633911        0.0002089294        0.0011213029
O        -0.0000237791       -0.0003999033       -0.0007192140
O        -0.0000036448        0.0000824344        0.0004048085
O         0.0000413925       -0.0000548611       -0.0007319170
O        -0.0002544404       -0.0000753830        0.0016089976
O         0.0000845094       -0.0002403773        0.0009761026
O        -0.0000141614       -0.0000083993       -0.0019106897
O        -0.0000048694        0.0001284041       -0.0004394969
O         0.0002471685       -0.0000236771        0.0009442598
O        -0.0001432746        0.0000167397        0.0008518679
O         0.0000579590        0.0001145594       -0.0005065339
O        -0.0001142919       -0.0001531904        0.0018892041
O        -0.0002557243       -0.0000695955       -0.0006924534
O        -0.0000050515        0.0000137979        0.0004297288
O        -0.0000347697        0.0000656573       -0.0008575693
O         0.0000251524        0.0000213077       -0.0017160426
O         0.0001285496        0.0000570476        0.0010718836
O        -0.0000284690       -0.0000909634       -0.0008986422
O        -0.0000296144        0.0001391454        0.0006167770
O         0.0000432506        0.0001277399       -0.0006324526
O         0.0003587216        0.0000153697        0.0016616930
O         0.0002003073        0.0000472775        0.0007933521
O         0.0001158062        0.0006771719       -0.0020186933
O         0.0001982373        0.0000255443       -0.0005641467
O         0.0001537052        0.0001514300        0.0008235050
O         0.0000250237       -0.0001149970       -0.0007712981
O        -0.0001217660       -0.0001935448        0.0005014293
O        -0.0000411094       -0.0000856324       -0.0006434731
O        -0.0005410006       -0.0001480485        0.0017740225
O        -0.0000066536       -0.0000883116        0.0010900708
O         0.0000339502       -0.0004436102       -0.0016523117
O        -0.0001944121        0.0000328883       -0.0005756478
O        -0.0000330005       -0.0001471565        0.0011199511
O         0.0000107444       -0.0004291677       -0.0017369182
O        -0.0000047618       -0.0000909406        0.0009733723
O        -0.0000253199       -0.0001644640        0.0004599539
O        -0.0001225374       -0.0001928395       -0.0009333313
O        -0.0005141887       -0.0000352810        0.0015064087
O        -0.0000789375       -0.0001619535       -0.0009150356
O         0.0000593463        0.0000853786        0.0008971950
O        -0.0002039024        0.0000566630       -0.0006477494
O         0.0000020257       -0.0002491762       -0.0008197039
O        -0.0001836827       -0.0000570559        0.0006843553
O         0.0002425554        0.0000599179       -0.0005478882
O        -0.0000693470        0.0000038536        0.0014175884
O         0.0001035723       -0.0000215954        0.0007630945
O         0.0001283508        0.0001750439       -0.0018054380
O        -0.0000265393       -0.0000094648       -0.0005340165
O         0.0003180871        0.0000474330        0.0010419774
O         0.0001452833        0.0002708287       -0.0019514015
O         0.0001018156       -0.0000371405        0.0006517201
O        -0.0000876539        0.0000324068        0.0009468063
O        -0.0000579113       -0.0000743075       -0.0005545715
O        -0.0000319086       -0.0000741056        0.0005487954
O        -0.0001473843       -0.0003276270       -0.0009376563
O         0.0001091324        0.0000088248        0.0016640175
O        -0.0000252036        0.0000791986       -0.0005530699
O        -0.0000201868       -0.0000335646        0.0005615807
O        -0.0001549204        0.0001460495       -0.0010975584
O         0.0001015154        0.0000418126        0.0013867530
O        -0.0000727113        0.0000199374       -0.0007619049
O         0.0000882950        0.0001931713       -0.0017697951
O         0.0001094178        0.0002519014        0.0007125270
O        -0.0000740129        0.0002128470        0.0008047165
O        -0.0000018205       -0.0000353886       -0.0007142806
O         0.0000730705        0.0002860711        0.0008797858
O         0.0001195005        0.0002017649       -0.0016865886
O        -0.0000416305       -0.0000778383       -0.0005971445
O         0.0002533391        0.0002235529        0.0008491273
O        -0.0000212420        0.0001176232       -0.0008592424
O        -0.0001054759       -0.0000549048        0.0006286044
O         0.0002937914        0.0000173412       -0.0007584726
O        -0.0000740657        0.0000876866        0.0012517859
O         0.0000338797       -0.0001025607       -0.0005737693
O        -0.0001323887        0.0002582845        0.0005787822
O        -0.0001039715       -0.0000342412       -0.0004510641
O         0.0001273655       -0.0001224705        0.0016344222
O        -0.0000464218       -0.0001069683        0.0009647624
O         0.0000022538        0.0003690006       -0.0015841334
O         0.0002006277        0.0000342842       -0.0004828779
O         0.0000987368       -0.0001181681        0.0007678828
O         0.0000229133        0.0003806129       -0.0017709248
O         0.0000358911       -0.0000631201        0.0008032752
O         0.0000129457        0.0002292507        0.0004649737
O        -0.0001150798       -0.0000899629       -0.0007311101
O         0.0001163354       -0.0000699444        0.0014588985
O        -0.0001328825       -0.0001646763       -0.0006052290
O         0.0000609775        0.0000322162        0.0006826877
O         0.0002241712        0.0000639611       -0.0005961392
O        -0.0000513722       -0.0000354271       -0.0009119197
O        -0.0001623208       -0.0002724336        0.0006045973
O         0.0001953108       -0.0000581095       -0.0008573523
O        -0.0002834068        0.0001016147        0.0014316829
O         0.0000249069        0.0001316325        0.0009046323
O         0.0001011758       -0.0001322450       -0.0017790750
O        -0.0002303007       -0.0000697402       -0.0006637868
O         0.0001021033        0.0000360360        0.0009186241
O        -0.0000532797       -0.0003382130       -0.0005859363
O        -0.0001436427        0.0000261288        0.0004816068
O         0.0000573560       -0.0002289163       -0.0006314945
O        -0.0002229679       -0.0000457157        0.0013527328
O        -0.0000638437       -0.0002260519        0.0008979361
O         0.0000642056       -0.0000820478       -0.0015860777
O         0.0000166273        0.0000037240       -0.0004825598
O         0.0001988228       -0.0000580928        0.0007353436
O        -0.0001382382       -0.0000930115        0.0007027478
O        -0.0000242507        0.0000322719       -0.0005251700
O        -0.0001504454        0.0000264340        0.0014959424
O        -0.0001971705       -0.0002071773       -0.0006888656
O        -0.0001216488        0.0000473147        0.0004015940
O        -0.0000663917        0.0000442757       -0.0006240933
O        -0.0000290125        0.0000194180       -0.0014471178
O        -0.0000899694        0.0000405211        0.0010172910
O        -0.0000953654       -0.0000681274       -0.0007124299
O        -0.0001505807        0.0001169262        0.0006155373
O         0.0000140761       -0.0000423120       -0.0006027670
O         0.0003207127        0.0001027564        0.0013528315
O         0.0000079934        0.0000775779        0.0007274561
O         0.0000803110        0.0005272133       -0.0017244456
O         0.0001246274       -0.0000980940       -0.0005626801
O         0.0001268499        0.0000430541        0.0006591986
     192
 i =        7, E =     -5782.5237050844
Ti         0.0016603253        0.0060975379        0.0053776700
Ti        -0.0038904590        0.0023731875       -0.0079589766
Ti        -0.0056859257       -0.0056444670       -0.0123199663
Ti        -0.0060112583       -0.0077393363        0.0149667576
Ti        -0.0048965622        0.0051836168        0.0052440763
Ti        -0.0019537361       -0.0058884091       -0.0020488110
Ti         0.0066053708        0.0055236179       -0.0201059878
Ti         0.0010164856        0.0025776825        0.0119748632
Ti        -0.0014956293       -0.0002196155        0.0152612870
Ti         0.0010354754        0.0095654340       -0.0042613097
Ti        -0.0011836879       -0.0092594822       -0.0050356558
Ti        -0.0050761169        0.0073836665        0.0061960438
Ti        -0.0017473013        0.0062345551        0.0079105461
Ti         0.0019450291       -0.0093327846       -0.0062333954
Ti         0.0032550146        0.0045756391        0.0077143604
Ti        -0.0009738462        0.0047508752       -0.0215307104
Ti        -0.0028427402       -0.0074483881       -0.0091264893
Ti        -0.0013581045       -0.0042690953       -0.0002512170
Ti         0.0007331757        0.0033321468       -0.0182438803
Ti         0.0002378367        0.0090549709        0.0103609044
Ti         0.0013546080       -0.0073794071        0.0059137731
Ti        -0.0056978094        0.0099935648       -0.0057418953
Ti        -0.0001522142       -0.0113240175       -0.0161599837
Ti         0.0013538750       -0.0065311722        0.0187087125
Ti        -0.0065139045       -0.0003163295        0.0226106164
Ti        -0.0073737330       -0.0065898484       -0.0105000264
Ti         0.0037029788        0.0004849131       -0.0076961424
Ti         0.0051069950       -0.0129102722        0.0132447596
Ti        -0.0041751759       -0.0152681069        0.0103971135
Ti        -0.0009873845        0.0061564740       -0.0052633534
Ti         0.0007491722       -0.0103436638       -0.0118600752
Ti        -0.0053391408        0.0000208577        0.0204409778
Ti        -0.0019483502       -0.0108722853        0.0221627554
Ti        -0.0057749090       -0.0035701915       -0.0153818798
Ti        -0.0042336235        0.0014674647       -0.0069544036
Ti         0.0002318726       -0.0067240736        0.0103974873
Ti        -0.0037574153       -0.0059024523       -0.0121006209
Ti        -0.0047100504       -0.0103453550        0.0177186799
Ti         0.0023335071       -0.0059989689        0.0079385048
Ti         0.0012077396        0.0032596231       -0.0110634691
Ti        -0.0029846519        0.0069450867       -0.0037421994
Ti         0.0079895749       -0.0123990100        0.0090772625
Ti        -0.0015752570       -0.0012267674        0.0145943762
Ti        -0.0100657785       -0.0115116671       -0.0102571687
Ti        -0.0095886076        0.0146459101        0.0025620498
Ti         0.0035979623       -0.0011119958       -0.0072951391
Ti         0.0084034234        0.0026894551       -0.0208564665
Ti         0.0063495791        0.0094483691        0.0135549808
Ti         0.0040857272        0.0082966091        0.0162006783
Ti        -0.0019411720        0.0108087397       -0.0226515112
Ti         0.0063393136       -0.0083908119       -0.0087426538
Ti        -0.0013282216        0.0142072035        0.0076265497
Ti         0.0070395838        0.0112893515       -0.0209076339
Ti        -0.0002759613        0.0086305349        0.0139135297
Ti        -0.0025738305       -0.0002206868       -0.0029112877
Ti         0.0014708974        0.0113321842        0.0033571656
Ti         0.0078180709       -0.0007300070        0.0143891410
Ti         0.0082288684        0.0101417183       -0.0265005294
Ti         0.0012817699        0.0022358769        0.0080939437
Ti         0.0064480883       -0.0039505703       -0.0058478805
Ti         0.0068878962       -0.0039244775        0.0085937976
Ti         0.0051976633        0.0108957776       -0.0076883165
Ti         0.0020569340       -0.0011701040       -0.0176524920
Ti         0.0023247720       -0.0012938160        0.0224915578
O        -0.0007053878       -0.0023260245       -0.0007748605
O         0.0009053216       -0.0014603969       -0.0092197272
O         0.0020113898        0.0031649794       -0.0013055040
O        -0.0018616445       -0.0022555265       -0.0098010991
O         0.0044811180        0.0025570460        0.0062029176
O         0.0033042796       -0.0018764702        0.0066803147
O        -0.0006636475        0.0029856433        0.0141530112
O         0.0006015594        0.0033010190       -0.0048120207
O         0.0002996394       -0.0012959095        0.0057867731
O         0.0012080715        0.0013175926       -0.0120754854
O        -0.0028012884        0.0003315359        0.0028297715
O        -0.0034688795       -0.0015795939       -0.0132989023
O         0.0031851587        0.0003479317        0.0072825020
O         0.0013128181       -0.0015455837        0.0032000269
O         0.0018315688        0.0043000638        0.0131914853
O         0.0003351939        0.0008663567       -0.0075726548
O         0.0004843047        0.0013411617       -0.0084791036
O         0.0028278289        0.0038530980        0.0151203631
O         0.0021061016       -0.0041759786       -0.0105536774
O        -0.0010025206        0.0001447485        0.0039074206
O         0.0011987159        0.0000340876       -0.0087062628
O         0.0001348629        0.0006178291        0.0032436795
O         0.0019846416       -0.0006922522        0.0092986737
O         0.0035276622       -0.0017212136        0.0083227847
O        -0.0001853432        0.0014713146        0.0043933252
O         0.0006995050       -0.0027206921       -0.0074648207
O         0.0000978888        0.0031780452        0.0031933432
O         0.0019888827       -0.0003628229       -0.0149158528
O         0.0041701088        0.0014091951        0.0019870282
O         0.0029151477        0.0059963406        0.0068535790
O        -0.0026745024        0.0035471236        0.0132459362
O         0.0002834974        0.0035970501       -0.0105160769
O         0.0019688118       -0.0021559186        0.0049157409
O        -0.0023598658        0.0003770474       -0.0119581938
O        -0.0016236841       -0.0005359582        0.0001927068
O        -0.0059577765       -0.0020813656       -0.0104812853
O        -0.0003277025       -0.0015942567        0.0106797112
O         0.0037906005       -0.0034782385        0.0090633371
O         0.0040280053        0.0053069816        0.0147846259
O        -0.0011544348       -0.0033118406       -0.0057859053
O        -0.0014872186       -0.0036633551        0.0084330140
O         0.0019373313       -0.0014920341        0.0097330185
O         0.0002562416        0.0022356218       -0.0121598736
O        -0.0033627298       -0.0026242996        0.0045534388
O        -0.0010162954        0.0007540662       -0.0147074025
O        -0.0017825117       -0.0033662238       -0.0046769765
O         0.0004293660        0.0035855293       -0.0081131662
O         0.0006642499        0.0016739280        0.0128905239
O         0.0016194216        0.0041997596        0.0026212242
O        -0.0029224897       -0.0012712809       -0.0106766513
O        -0.0001076778        0.0012837699       -0.0007253145
O         0.0009240110       -0.0036998147       -0.0137311360
O         0.0012007654        0.0045222827        0.0045388691
O         0.0041127089        0.0027767510        0.0090152721
O        -0.0001794256        0.0034369049        0.0125822098
O         0.0012081834       -0.0004508797       -0.0084752103
O         0.0007926765        0.0032848237        0.0065285885
O         0.0031647142        0.0048291876        0.0048600395
O         0.0013512588       -0.0004386557       -0.0094305751
O        -0.0013517999        0.0034545307        0.0157874427
O        -0.0002039560       -0.0009847238       -0.0122401059
O        -0.0043975441        0.0031780468        0.0034213897
O         0.0067548369       -0.0007605792       -0.0113594834
O         0.0037736528        0.0013983339       -0.0004996897
O         0.0000264161       -0.0003438163       -0.0081969952
O        -0.0039404975        0.0013073969        0.0026776469
O         0.0022603272        0.0017813527       -0.0155264953
O         0.0018355970       -0.0009241931       -0.0018761109
O        -0.0009092469        0.0031437584        0.0038850559
O         0.0034425890        0.0005726907        0.0056286273
O         0.0029548864        0.0058376596       -0.0088545438
O         0.0019501892        0.0004516464        0.0130977771
O         0.0007276115        0.0021529634        0.0069877293
O         0.0053422253        0.0034394403        0.0052076301
O        -0.0017656422        0.0000258529        0.0132108883
O        -0.0013813602        0.0059788201       -0.0081824065
O         0.0011228408        0.0007985633        0.0042435051
O        -0.0024490140       -0.0009295160       -0.0081935535
O         0.0018815156       -0.0011176537       -0.0023537774
O         0.0016045477        0.0021255886       -0.0145098817
O         0.0022685940       -0.0030990244        0.0073181906
O        -0.0026307753       -0.0005728745       -0.0106042826
O        -0.0032171649       -0.0001396483        0.0035858054
O        -0.0026863572       -0.0045832877       -0.0135603038
O        -0.0006741128       -0.0015707080        0.0073358150
O         0.0039781959       -0.0023144002        0.0113803542
O        -0.0010286798        0.0048095171        0.0150130106
O         0.0000134261       -0.0036834258       -0.0113697794
O        -0.0013709704       -0.0015736925        0.0095511550
O         0.0019741842       -0.0017429302        0.0064768494
O         0.0004790805       -0.0024416527       -0.0117810121
O        -0.0036546770       -0.0023336078        0.0073082755
O        -0.0041650167       -0.0001068014       -0.0145257777
O        -0.0032324580       -0.0031559168        0.0034120511
O        -0.0009888545        0.0027624137       -0.0099061196
O         0.0008741551        0.0017987947        0.0147769428
O        -0.0032058520        0.0028585332        0.0009751005
O        -0.0049662759        0.0004482946       -0.0106601721
O         0.0025281868       -0.0036223779       -0.0042096509
O         0.0034761807       -0.0038875223       -0.0150965306
O        -0.0012717511        0.0026729039        0.0069976882
O         0.0002166427        0.0045711518        0.0075554743
O         0.0000324838       -0.0010836861        0.0138164210
O         0.0005565045        0.0002402034       -0.0070260174
O        -0.0021001430        0.0007952443        0.0051365455
O        -0.0046735949        0.0002483030       -0.0126525978
O        -0.0030407355       -0.0056728684        0.0010685060
O        -0.0014378832       -0.0052612016       -0.0132093232
O        -0.0022334766        0.0009240522        0.0082047215
O        -0.0005818387       -0.0026028785        0.0116111885
O         0.0022868822       -0.0000814042        0.0133235551
O        -0.0019500373       -0.0017291925       -0.0081342294
O         0.0028316457       -0.0020372702       -0.0083669300
O         0.0023152805        0.0002453839        0.0152928914
O        -0.0020161901       -0.0048863548       -0.0153079309
O         0.0001107277       -0.0052206599        0.0006747924
O        -0.0043037724        0.0007923963       -0.0102005619
O        -0.0027524995       -0.0047162360        0.0060638851
O        -0.0011122550       -0.0002862641        0.0095398540
O        -0.0031146181       -0.0027711480        0.0090206814
O        -0.0034343324       -0.0000836433        0.0041533223
O        -0.0047223765       -0.0038246713       -0.0094602772
O        -0.0005178205       -0.0029302598        0.0009563730
O        -0.0003795990       -0.0032793700       -0.0155691347
O        -0.0011833293        0.0014467483        0.0032347348
O        -0.0000214142       -0.0000945353        0.0076682667
O        -0.0036013663       -0.0015550983        0.0142044466
O        -0.0003961007        0.0001464660       -0.0095885727
     192
 i =        8, E =     -5782.5705131616
Ti         0.0004531400        0.0007804446        0.0009576232
Ti        -0.0002977160        0.0006062376       -0.0009636866
Ti        -0.0003213268       -0.0006145444        0.0026784074
Ti        -0.0004691956       -0.0005828972       -0.0025053019
Ti         0.0000175578        0.0008223256        0.0005971297
Ti         0.0001744711       -0.0010247599       -0.0003027962
Ti         0.0003932662        0.0010637461        0.0020724149
Ti         0.0003961201        0.0006663643       -0.0022502775
Ti         0.0001989418        0.0006086703       -0.0020785295
Ti         0.0004161108        0.0009445621        0.0031121937
Ti         0.0002255845       -0.0007660464       -0.0007640655
Ti        -0.0008183270        0.0004832596        0.0007441761
Ti         0.0006721189        0.0003397235        0.0008109590
Ti         0.0000687258       -0.0007954515       -0.0007768969
Ti         0.0002086224        0.0007598142       -0.0033813833
Ti         0.0004179299        0.0009498021        0.0018011964
Ti         0.0000729629       -0.0006135713       -0.0009303247
Ti         0.0003580079       -0.0007215299        0.0001905487
Ti         0.0004141997        0.0007291699        0.0017923669
Ti         0.0003362152        0.0006891786       -0.0029297266
Ti         0.0003965671       -0.0005606171        0.0008095032
Ti        -0.0005234779        0.0006918138       -0.0006370773
Ti        -0.0003369591       -0.0011011541        0.0016846803
Ti        -0.0003696129       -0.0003491818       -0.0019270815
Ti        -0.0004433610       -0.0004197094       -0.0011709878
Ti        -0.0005059582       -0.0013504353        0.0026034179
Ti        -0.0001744543        0.0004245242       -0.0009463959
Ti        -0.0001035286       -0.0001745060        0.0015408823
Ti         0.0002720123        0.0002370498        0.0012256420
Ti        -0.0005305498        0.0004627580       -0.0006870900
Ti        -0.0002624651       -0.0011172671        0.0017748581
Ti        -0.0004010811       -0.0004015946       -0.0011803940
Ti        -0.0005391833       -0.0005637804       -0.0014555299
Ti        -0.0002253262       -0.0008493894        0.0021042916
Ti        -0.0003737526        0.0004670392       -0.0008222844
Ti        -0.0006583515       -0.0004538351        0.0012081048
Ti        -0.0006260973       -0.0011464635        0.0026092541
Ti        -0.0003293931       -0.0005300685       -0.0012893799
Ti         0.0009286620       -0.0004782116        0.0008519982
Ti        -0.0002608050        0.0006847780       -0.0011543712
Ti        -0.0002007331        0.0005509982       -0.0006189193
Ti         0.0000612099        0.0004569455        0.0011620750
Ti        -0.0004306150       -0.0004310216       -0.0025057609
Ti        -0.0005692408       -0.0012079779        0.0017534312
Ti        -0.0000446298        0.0002362730        0.0003456130
Ti         0.0002610205       -0.0006766209       -0.0008617647
Ti         0.0006011501        0.0006351912        0.0011126204
Ti         0.0002369658        0.0006317493       -0.0022143656
Ti         0.0002253720        0.0005318663       -0.0019313444
Ti         0.0003105341        0.0007963618        0.0013499201
Ti         0.0003740793       -0.0007262114       -0.0009378454
Ti        -0.0004075533        0.0002426380        0.0007100681
Ti         0.0004579060        0.0008690227        0.0017991782
Ti         0.0002207832        0.0005787914       -0.0015467092
Ti         0.0000802762       -0.0005857328       -0.0004801153
Ti        -0.0001961615       -0.0001377156        0.0005108709
Ti         0.0004309734        0.0004834063       -0.0018884639
Ti         0.0005930213        0.0009600478        0.0010587315
Ti        -0.0001323334        0.0003785256        0.0007956513
Ti         0.0003704062       -0.0008000094       -0.0007651436
Ti         0.0000723494       -0.0001632429        0.0009965778
Ti         0.0000042275        0.0007680547       -0.0008872344
Ti        -0.0001097912       -0.0007877059        0.0013323127
Ti        -0.0002588897       -0.0004738737       -0.0010326413
O        -0.0001795928       -0.0000159389       -0.0014760830
O        -0.0000917691       -0.0004513451        0.0004422973
O         0.0002967599        0.0000705430       -0.0007785861
O        -0.0003667084       -0.0001852292        0.0002442028
O         0.0003949894        0.0002814046        0.0013386743
O         0.0003029137       -0.0007994245       -0.0016202131
O        -0.0002388263        0.0004318929        0.0004016566
O         0.0000984916        0.0004715983        0.0007991861
O        -0.0000964601       -0.0001520053       -0.0007688308
O        -0.0001353147        0.0001687916        0.0000619156
O        -0.0000759039       -0.0001196511       -0.0005360495
O        -0.0006148143       -0.0003437507        0.0003697996
O         0.0002587329       -0.0002408445        0.0014146449
O         0.0001624201       -0.0003405394       -0.0010407188
O        -0.0000998878        0.0005555660        0.0005470992
O         0.0001429407        0.0001101206        0.0005857898
O        -0.0002433660        0.0001400255        0.0004283500
O         0.0000816086        0.0006242279        0.0005459610
O         0.0000725738       -0.0004302373        0.0008292416
O        -0.0002890244       -0.0001301403       -0.0005195976
O        -0.0001062092       -0.0001007248        0.0001767613
O        -0.0001047142        0.0002973534       -0.0008819995