     192
 i =        6, E =     -5782.5699899428
Ti         0.0005364080        0.0020572379       -0.0003837137
Ti         1.8887583091        1.8881989195        4.8079512231
Ti         0.0013161161        1.8893416937        2.4030818293
Ti         1.8889836383        0.0016624018        7.2116832335
Ti         0.0014204598        3.7757607394        0.0024609729
Ti         1.8887055699       13.2382001613        4.8060402737
Ti        11.3496108804        1.8878988648        2.4047298377
Ti         5.6692911973        0.0006322179        7.2160367540
Ti         1.8883898125        3.7762393900        7.2089713182
Ti         0.0007037448       13.2368412469        2.4049375876
Ti         5.6696534852        1.8892589361        4.8038901620
Ti        11.3501555403       -0.0000226467       -0.0019307234
Ti         3.7771137975        0.0003128377       -0.0034476801
Ti        13.2375154597        1.8891856153        4.8095599928
Ti        13.2371476604        0.0005489910        7.2103434922
Ti         3.7761262131        1.8879173042        2.4062501521
Ti         1.8886617361        5.6699924517        4.8120985824
Ti         0.0011106353       11.3487037481        0.0012703881
Ti         0.0008091005        5.6691203382        2.3989467759
Ti         1.8884160064       11.3493909291        7.2104764008
Ti         0.0007835545        7.5699656415        0.0051187441
Ti         1.8889127348        9.4617356840        4.8090887087
Ti         7.5696278816        1.8895202109        2.4086026503
Ti         9.4624920445        0.0014699006        7.2132870514
Ti         1.8889727127        7.5696933724        7.2063804080
Ti         0.0015357278        9.4631994813        2.4015827671
Ti         9.4625109189        1.8883052529        4.8067325321
Ti         7.5692935268        0.0021065401       -0.0062453278
Ti         3.7764925043        3.7776289103       -0.0007392608
Ti        13.2376368990       13.2370950500        4.8078792496
Ti        11.3501921794        5.6704618666        2.4004051233
Ti         5.6698940367       11.3502642074        7.2143552667
Ti        13.2378776564        3.7771476120        7.2072339776
Ti         3.7767016831       13.2380429689        2.4078239626
Ti         5.6698810597        5.6692337837        4.8079211550
Ti        11.3496935872       11.3507520292       -0.0004922142
Ti        11.3503754700       13.2383659940        2.4061295780
Ti         5.6698024486        3.7770595097        7.2131713359
Ti         3.7763215669       11.3506378088       -0.0018372609
Ti        13.2375667473        5.6690118044        4.8137714206
Ti         5.6698819197       13.2370389008        4.8021742888
Ti        11.3495119756        3.7774008970        0.0008797730
Ti        13.2377286800       11.3503736316        7.2088387936
Ti         3.7769145551        5.6706187625        2.4016983643
Ti         3.7769750060        7.5680568499        0.0022484290
Ti        13.2372591993        9.4627683633        4.8109388425
Ti         7.5688482492        5.6692260632        2.4045821346
Ti         9.4619626392       11.3495135199        7.2118619593
Ti        13.2372675249        7.5689736928        7.2048613727
Ti         3.7761993876        9.4618466507        2.4049327397
Ti         9.4622119287        5.6700887755        4.8108703915
Ti         7.5698665504       11.3488689184       -0.0045237270
Ti        11.3496250488        9.4617501057        2.4033565035
Ti         5.6693668346        7.5689230669        7.2105583635
Ti         5.6698129509        9.4626844122        4.8049888696
Ti        11.3501379913        7.5683773646        0.0036196418
Ti         9.4619969579        3.7761103261        7.2103226605
Ti         7.5689197357       13.2367437631        2.4105659677
Ti         7.5695509730        3.7757842558       -0.0031807506
Ti         9.4622442648       13.2380646614        4.8050944534
Ti         7.5690535201        7.5698698689       -0.0004813433
Ti         9.4623802833        9.4617327179        4.8080266555
Ti         7.5693849963        9.4629620784        2.4074745536
Ti         9.4624998940        7.5698089610        7.2076039490
O         0.0012780612        0.0013532392        1.9930602447
O         1.8848640960        1.8878185537        6.8011254963
O         0.0015256797        1.8843775930        4.3973020221
O         1.8874654031        0.0012266014        9.2059370901
O         1.8835100120        0.0015231673        5.2175215794
O        -0.0001198187        1.8876909318        0.4106493406
O         1.8877204499        1.8835219058        2.8134815668
O         0.0017906258       -0.0003465150        7.6224837685
O         0.0011008390        3.7760764981        1.9900726169
O         1.8848567579       13.2368153037        6.8017491539
O        11.3511313458        1.8849370531        4.3969544456
O         5.6723556132        0.0016077502        9.2062417145
O         1.8839598144        3.7760214305        5.2189856608
O         0.0002617763       13.2371483856        0.4091412348
O         5.6720518944        1.8834187264        2.8123261282
O        11.3510280496        0.0004615174        7.6227075359
O         3.7759705429        0.0004378796        7.6249773756
O        13.2368269256        1.8832195882        2.8130377810
O        13.2369006441        0.0017679047        9.2053825064
O         3.7761260248        1.8851101492        4.3948881281
O         1.8850127091        5.6721259649        6.8023857301
O         0.0010788440       11.3511913779        1.9921403384
O         0.0002227590        5.6723282344        0.4086636327
O         1.8837360246       11.3511479680        5.2168270359
O         0.0011767413        7.5667314503        1.9940089023
O         1.8850348215        9.4628251164        6.7989151974
O         7.5668230331        1.8845310235        4.3980817901
O         9.4626197477        0.0014088580        9.2036715796
O         1.8837235329        7.5667241977        5.2167017550
O         0.0000183500        9.4624454095        0.4126809536
O         9.4628154013        1.8837623607        2.8156044664
O         7.5668424365       -0.0001377204        7.6215224483
O         3.7695988483        0.0016027522        1.9925538004
O        13.2386271321        1.8875884763        6.8014938593
O         0.0017426985        5.6566583998        4.3968040104
O         1.8876507921       11.3555265868        9.2056205637
O        13.2373845579        0.0017699324        5.2170570057
O         3.7684789385        1.8880496916        0.4091426122
O         1.8877712683        5.6548454055        2.8135146927
O         0.0017776770       11.3542621616        7.6224851894
O        11.3538430957        1.8879049093        0.4093506098
O         5.6553730408        0.0017840114        5.2170029700
O         5.6567086758        1.8877238692        6.8014372753
O        11.3547958365        0.0017671097        1.9925052130
O         1.8878733898        3.7700027350        9.2056870368
O         0.0017796537       13.2385309425        4.3970671296
O         0.0017087961        3.7688407807        7.6222753963
O         1.8875313627       13.2368849037        2.8134466876
O         3.7700911887        3.7756877719        1.9913931052
O        13.2387019780       13.2369198878        6.8009582074
O        11.3507302568        5.6563117683        4.3969857294
O         5.6720055843       11.3549020021        9.2068864016
O        13.2371026467        3.7758023082        5.2200130785
O         3.7681377497       13.2368883159        0.4099983352
O         5.6721439919        5.6558099337        2.8126963092
O        11.3510166931       11.3535475734        7.6222439988
O        11.3535762001       13.2367330915        0.4104486868
O         5.6556681851        3.7760127035        5.2197615159
O         3.7760004451       11.3534365512        7.6245300401
O        13.2369812513        5.6550619738        2.8136391099
O         5.6563943400       13.2369291074        6.8010244130
O        11.3547367306        3.7756694854        1.9912497561
O        13.2367173698       11.3552234556        9.2060801098
O         3.7760122043        5.6566087561        4.3951261402
O         5.6571094223        5.6722701089        6.8020080972
O        11.3549595920       11.3508081030        1.9933908297
O        13.2366782074        3.7697290334        9.2063274609
O         3.7759802011       13.2379378474        4.3950986077
O        11.3535085101        5.6720028007        0.4097495740
O         5.6553411487       11.3507232909        5.2177435633
O         3.7759803689        3.7686601638        7.6240408315
O        13.2370109335       13.2371998899        2.8137531373
O        13.2372369712       11.3508574847        5.2178133292
O         3.7687630130        5.6719026260        0.4095358122
O         5.6721679468       13.2372934485        2.8128584778
O        11.3511092998        3.7683271520        7.6220361745
O         3.7699138264       11.3507900956        1.9931967722
O        13.2384095177        5.6723659519        6.8017809891
O        11.3508180356       13.2380528422        4.3971263354
O         5.6719739601        3.7699602509        9.2069509088
O         3.7699077107        7.5672540811        1.9934556204
O        13.2385685568        9.4627347465        6.7992832058
O         7.5670624468        5.6571764935        4.3978743528
O         9.4629090183       11.3552828936        9.2034323099
O        13.2374734667        7.5669634772        5.2161599254
O         3.7689099112        9.4628423338        0.4109578672
O         9.4625652175        5.6552952742        2.8152780731
O         7.5668233072       11.3540852680        7.6217136363
O        11.3536995697        9.4630100769        0.4114698153
O         5.6561017314        7.5669833755        5.2160299299
O         5.6569359194        9.4626009052        6.7994818026
O        11.3546022473        7.5670562146        1.9933965026
O         9.4627758345        3.7704239877        9.2036102304
O         7.5670291548       13.2384664198        4.3977891045
O         7.5669311053        3.7693883256        7.6212938123
O         9.4627233469       13.2368275756        2.8155844084
O         7.5835214798        0.0013518878        1.9932186418
O         9.4700494408        1.8877327935        6.8012961004
O         0.0014428370        9.4698033840        4.3976874284
O         1.8876581623        7.5834740816        9.2058126694
O         9.4688129051        0.0015448697        5.2173906474
O         7.5818834770        1.8877554319        0.4107728922
O         1.8877917079        9.4686732241        2.8135735615
O         0.0017272295        7.5821895712        7.6223498541
O         7.5828293381        3.7762659716        1.9904725326
O         9.4702198465       13.2368352854        6.8018859221
O        11.3509608314        9.4701559673        4.3971333921
O         5.6722140776        7.5832990152        9.2063603602
O         9.4686434450        3.7761049993        5.2188347881
O         7.5820736720       13.2371922765        0.4093882036
O         5.6719076394        9.4681242976        2.8123083571
O        11.3509285219        7.5825910191        7.6226040770
O         3.7761048499        7.5823053835        7.6245500034
O        13.2369330117        9.4683817373        2.8130643674
O        13.2369233941        7.5839501342        9.2054535555
O         3.7761836356        9.4698360688        4.3953401064
O         9.4697250706        5.6720493585        6.8027179043
O         7.5832902133       11.3509663161        1.9922289892
O         7.5817025696        5.6722727529        0.4085555363
O         9.4690193338       11.3510571218        5.2167444853
O         7.5828774161        7.5667630043        1.9942313990
O         9.4697324463        9.4628789436        6.7992609205
O         7.5669179307        9.4692867384        4.3983980339
O         9.4624771814        7.5831474302        9.2039008637
O         9.4684954909        7.5667185493        5.2165602600
O         7.5815860133        9.4624265210        0.4125419105
O         9.4627758735        9.4685063512        2.8154074336
O         7.5669288174        7.5814742202        7.6212863277
     192
 i =        7, E =     -5782.5237050844
Ti        -0.0027655729        0.0254702656       -0.0073582387
Ti         1.8941594181        1.8854264041        4.8155875787
Ti         0.0104769577        1.9048363623        2.4289263758
Ti         1.8976712216        0.0158083980        7.1812669643
Ti         0.0127128642        3.7726965835       -0.0081361311
Ti         1.8932377358       13.2431441753        4.8113108080
Ti        11.3386097131        1.8798442883        2.4309544345
Ti         5.6675198899       -0.0020115506        7.1931261273
Ti         1.8876164640        3.7796972477        7.1858392349
Ti         0.0001379222       13.2207615549        2.4338457446
Ti         5.6732555392        1.9009585441        4.8105401813
Ti        11.3464811999       -0.0125452973       -0.0071367710
Ti         3.7976162812       -0.0077381739       -0.0097573497
Ti        13.2318685737        1.9015862121        4.8152001151
Ti        13.2260520258       -0.0024626842        7.1859413162
Ti         3.7782705306        1.8797086257        2.4327214088
Ti         1.8909747912        5.6788263107        4.8216527885
Ti         0.0080728890       11.3199960744       -0.0049565450
Ti         0.0009275681        5.6649317299        2.4215359285
Ti         1.8882655534       11.3352717509        7.1867057884
Ti         0.0006154224        7.5739927795       -0.0035040800
Ti         1.8957872663        9.4435723097        4.8144011388
Ti         7.5686064921        1.9056960809        2.4309133993
Ti         9.4569681948        0.0124522337        7.1891159408
Ti         1.8960071898        7.5696133224        7.1829989629
Ti         0.0134504700        9.4685079382        2.4237525117
Ti         9.4564543490        1.8859999339        4.8152428561
Ti         7.5618632869        0.0248451893       -0.0159950192
Ti         3.7846308947        3.8049878782       -0.0129154021
Ti        13.2337661389       13.2246118685        4.8142676602
Ti        11.3500438526        5.6873112938        2.4198050110
Ti         5.6767611764       11.3511176676        7.1901080068
Ti        13.2383942132        3.7948653915        7.1833839023
Ti         3.7880810841       13.2416235089        2.4320666350
Ti         5.6761202372        5.6657419856        4.8149215226
Ti        11.3379029081       11.3580470713       -0.0084119391
Ti        11.3509893953       13.2462690609        2.4269907541
Ti         5.6751457986        3.7912140562        7.1932174554
Ti         3.7831630764       11.3566654622       -0.0080159064
Ti        13.2333985765        5.6632427481        4.8228468984
Ti         5.6768093698       13.2249365336        4.8084536068
Ti        11.3363161192        3.8021943512       -0.0092385371
Ti        13.2356900642       11.3513868695        7.1864985678
Ti         3.7893333189        5.6891082151        2.4189615075
Ti         3.7921581907        7.5408244276       -0.0037883625
Ti        13.2283035540        9.4607868725        4.8180464709
Ti         7.5567671647        5.6654523243        2.4261593959
Ti         9.4484271783       11.3377418156        7.1908869544
Ti        13.2289291581        7.5576907748        7.1844006351
Ti         3.7788727904        9.4468832926        2.4306801446
Ti         9.4540616897        5.6796827808        4.8204739913
Ti         7.5721603545       11.3251805579       -0.0123715023
Ti        11.3394813871        9.4447874991        2.4279867278
Ti         5.6679021591        7.5578457799        7.1911035323
Ti         5.6748469043        9.4617054271        4.8094999504
Ti        11.3483925435        7.5451053738       -0.0030995976
Ti         9.4494339957        3.7770161879        7.1890513209
Ti         7.5567582858       13.2200215122        2.4376528894
Ti         7.5675723776        3.7707283724       -0.0126089843
Ti         9.4525726088       13.2411060043        4.8147615364
Ti         7.5589671486        7.5734471564       -0.0083504010
Ti         9.4549046136        9.4444417085        4.8164518131
Ti         7.5653826546        9.4666614783        2.4312459443
Ti         9.4590824011        7.5717982874        7.1847509372
O         0.0064432373       -0.0036286738        1.9953696988
O         1.8848971501        1.8910062727        6.8175050973
O         0.0005363238        1.8792095673        4.4083140557
O         1.8858640024        0.0080689521        9.2520072479
O         1.8647503173        0.0007677654        5.2029237121
O        -0.0154669644        1.8903427999        0.3904001781
O         1.8901820783        1.8607646844        2.7893188116
O         0.0048704700       -0.0184705421        7.6296503931
O         0.0037902255        3.7759048084        1.9775808397
O         1.8858148483       13.2341661990        6.8266774357
O        11.3511268361        1.8858968310        4.4024312553
O         5.6752814674        0.0133343923        9.2339306246
O         1.8678822976        3.7763301582        5.1977655638
O        -0.0111942451       13.2401467655        0.3644847696
O         5.6707124611        1.8585722624        2.7905295100
O        11.3509804140       -0.0075263275        7.6322159079
O         3.7743008043       -0.0079134362        7.6395545490
O        13.2343648291        1.8572587512        2.7833331648
O        13.2349375516        0.0145202049        9.2413098917
O         3.7776165404        1.8866392645        4.3978506116
O         1.8861008052        5.6719513602        6.8179764891
O         0.0038791317       11.3526702150        1.9806167036
O        -0.0108062602        5.6755061146        0.3783529671
O         1.8666878093       11.3514657721        5.1915059835
O         0.0061127375        7.5624873179        1.9930707497
O         1.8860062704        9.4627491313        6.8090594749
O         7.5639053370        1.8795351137        4.4030859139
O         9.4585351912        0.0103401513        9.2414842013
O         1.8657283991        7.5625346730        5.2078595999
O        -0.0139452342        9.4568000411        0.3966418014
O         9.4626304004        1.8631037961        2.7967041055
O         7.5657567706       -0.0152396806        7.6318830371
O         3.7674961084        0.0015806931        1.9819848828
O        13.2547561155        1.8873442704        6.8307859298
O         0.0036357365        5.6670274305        4.4076141759
O         1.8890901981       11.3847121990        9.2380990145
O        13.2336446349        0.0041457086        5.1877610773
O         3.7447685723        1.8949104411        0.3713635512
O         1.8876673482        5.6303930072        2.7822128455
O         0.0047333830       11.3603860162        7.6364889930
O        11.3560422577        1.8937793995        0.3758552625
O         5.6443834113        0.0043628339        5.1873673912
O         5.6642593150        1.8868076727        6.8298086348
O        11.3708720168        0.0038288756        1.9797813179
O         1.8917799008        3.7721364963        9.2390844788
O         0.0042862104       13.2522896680        4.4120342477
O         0.0036242702        3.7543408436        7.6310495633
O         1.8868232809       13.2253344330        2.7818472446
O         3.7710693968        3.7687116944        1.9923800441
O        13.2550891997       13.2359309107        6.8220713252
O        11.3478723408        5.6590208733        4.4112462168
O         5.6698014044       11.3778163016        9.2386527298
O        13.2309528473        3.7724750479        5.2066041942
O         3.7419852299       13.2355765154        0.3874728787
O         5.6718850268        5.6385011764        2.7933689838
O        11.3508618737       11.3511296286        7.6329399267
O        11.3528890357       13.2334103785        0.3956900519
O         5.6426985166        3.7732306864        5.2057654370
O         3.7752859296       11.3509150313        7.6403701808
O        13.2370770821        5.6369309985        2.7852038148
O         5.6626525109       13.2360507371        6.8225892211
O        11.3719849682        3.7689372034        1.9892462777
O        13.2319776741       11.3813433946        9.2455009469
O         3.7730790245        5.6598384374        4.4069525154
O         5.6627222869        5.6735350819        6.8153576384
O        11.3738663669       11.3457769245        1.9941651422
O        13.2315255318        3.7702806078        9.2491072554
O         3.7746847415       13.2450403105        4.4095874980
O        11.3531798953        5.6703761549        0.4039214426
O         5.6418976220       11.3479378136        5.1988990281
O         3.7747042216        3.7481196447        7.6311612483
O        13.2375567057       13.2296326567        2.7869139605
O        13.2322533714       11.3471778314        5.1999086004
O         3.7475376926        5.6693303877        0.4006173989
O         5.6726276111       13.2302234567        2.7923484274
O        11.3525853836        3.7455446108        7.6267481052
O         3.7708232505       11.3462666757        1.9927700251
O        13.2506296024        5.6754726990        6.8151808168
O        11.3467735739       13.2465152880        4.4135015941
O         5.6692224675        3.7694395314        9.2387859013
O         3.7675159630        7.5712003279        1.9792170413
O        13.2541066387        9.4616781513        6.8223378928
O         7.5688171964        5.6642526518        4.4023994469
O         9.4626287694       11.3825942460        9.2288599680
O        13.2341531709        7.5672071767        5.1927919382
O         3.7491014658        9.4641145819        0.3748130858
O         9.4615920011        5.6342547441        2.7870409796
O         7.5647619248       11.3601328036        7.6404731088
O        11.3555528875        9.4658178673        0.3829932018
O         5.6453226222        7.5680085703        5.1943379237
O         5.6646634864        9.4620713608        6.8224187863
O        11.3698982636        7.5684663480        1.9774556195
O         9.4617219586        3.7762229385        9.2313922682
O         7.5679247747       13.2505873827        4.4046014650
O         7.5662178202        3.7576387754        7.6325367663
O         9.4612631151       13.2250117040        2.7888012720
O         7.5952476227       -0.0034073005        1.9997875698
O         9.4907594717        1.8893281063        6.8216588175
O        -0.0004646945        9.4863934178        4.4158909627
O         1.8862549667        7.6012795858        9.2480506926
O         9.4692925152        0.0008911715        5.2003606935
O         7.5712497188        1.8888089021        0.3936241803
O         1.8906501811        9.4666398994        2.7897028620
O         0.0038508286        7.5717974353        7.6265237873
O         7.5911144194        3.7766898830        1.9822166335
O         9.4926233532       13.2343821268        6.8296060864
O        11.3494166054        9.4914034347        4.4073264835
O         5.6725609378        7.6041626896        9.2316617099
O         9.4693975078        3.7768182283        5.1951612834
O         7.5700878624       13.2406965668        0.3702666272
O         5.6690731400        9.4615179579        2.7901130537
O        11.3515665898        7.5814272231        7.6291909198
O         3.7745576186        7.5805179440        7.6345058035
O        13.2356996876        9.4613236957        2.7830550690
O        13.2354657633        7.6046471795        9.2405997538
O         3.7778149103        9.4891867214        4.4057831324
O         9.4893062227        5.6708670397        6.8236459654
O         7.5944079720       11.3516216957        1.9843772901
O         7.5744486939        5.6743238268        0.3808179993
O         9.4726747384       11.3508458139        5.1893764080
O         7.5952708689        7.5632577518        1.9948609572
O         9.4880566521        9.4638273058        6.8147800096
O         7.5653449382        9.4824583109        4.4087852614
O         9.4589878979        7.5996662790        9.2411643358
O         9.4685575639        7.5621318607        5.2054728247
O         7.5699001203        9.4587576238        0.3978453212
O         9.4626568410        9.4660081522        2.7931292185
O         7.5673607445        7.5713884420        7.6299015302
     192
 i =        8, E =     -5782.5705131616
Ti         0.0000948201        0.0054747854       -0.0010332800
Ti         1.8888990899        1.8880148408        4.8083902373
Ti         0.0019532300        1.8903689699        2.4052093656
Ti         1.8893718349        0.0025819282        7.2093810703
Ti         0.0023410900        3.7759053858        0.0017838499
Ti         1.8889104152       13.2384895987        4.8064765524
Ti        11.3490632963        1.8871760790        2.4066879137
Ti         5.6691004446        0.0003817266        7.2145619288
Ti         1.8881488401        3.7762560480        7.2072827020
Ti         0.0006924982       13.2357137303        2.4078929966
Ti         5.6698042409        1.8898247194        4.8040781743
Ti        11.3494334377       -0.0011642841       -0.0021511521
Ti         3.7793256328       -0.0005736998       -0.0037321909
Ti        13.2370705808        1.8899389301        4.8098235781
Ti        13.2362351145        0.0004106423        7.2082948363
Ti         3.7761455791        1.8872648681        2.4083079339
Ti         1.8885408615        5.6704856344        4.8128311266
Ti         0.0018698387       11.3449533091        0.0004743407
Ti         0.0007758076        5.6687110469        2.4003459415
Ti         1.8881831618       11.3486056382        7.2086441003
Ti         0.0007329731        7.5698723211        0.0046914082
Ti         1.8891551285        9.4605216875        4.8096770039
Ti         7.5695914344        1.8905328373        2.4104363451
Ti         9.4622358116        0.0021807449        7.2118249246
Ti         1.8892371126        7.5696201258        7.2048174561
Ti         0.0022962920        9.4636322774        2.4031384608
Ti         9.4621727785        1.8879392941        4.8070409337
Ti         7.5687675655        0.0037592463       -0.0069340161
Ti         3.7768136875        3.7795033701       -0.0015141087
Ti        13.2371694334       13.2361912338        4.8083036065
Ti        11.3504327969        5.6715982076        2.4014200369
Ti         5.6702343764       11.3505256407        7.2131264481
Ti        13.2378059355        3.7781289896        7.2057314436
Ti         3.7775950804       13.2383823307        2.4096771783
Ti         5.6701568287        5.6689326033        4.8083503539
Ti        11.3483998234       11.3514395564       -0.0008299641
Ti        11.3503133181       13.2389638789        2.4076165586
Ti         5.6700904713        3.7777108420        7.2119629364
Ti         3.7770755766       11.3512252517       -0.0022380931
Ti        13.2372455833        5.6686714778        4.8144312180
Ti         5.6703043148       13.2362286687        4.8024067409
Ti        11.3487168960        3.7792117506        0.0003847970
Ti        13.2374847658       11.3505513062        7.2072456656
Ti         3.7775418386        5.6717727695        2.4028605280
Ti         3.7778843295        7.5662551015        0.0018879197
Ti        13.2366803842        9.4627063731        4.8114262043
Ti         7.5682388196        5.6687710854        2.4060140017
Ti         9.4611860206       11.3489288695        7.2105923205
Ti        13.2366432381        7.5682272283        7.2034276190
Ti         3.7762637740        9.4609121187        2.4065988798
Ti         9.4618252329        5.6705695186        4.8114856195
Ti         7.5699807674       11.3472698808       -0.0051603547
Ti        11.3491125175        9.4607271259        2.4048782216
Ti         5.6691913566        7.5683187501        7.2092974984
Ti         5.6699512990        9.4628033817        4.8052400729
Ti        11.3502593610        7.5666980561        0.0033532612
Ti         9.4612092953        3.7759176683        7.2089113723
Ti         7.5682239379       13.2356611266        2.4123620786
Ti         7.5694400421        3.7752603338       -0.0038029923
Ti         9.4617292554       13.2382831762        4.8056478788
Ti         7.5684234884        7.5702431832       -0.0009270246
Ti         9.4619864766        9.4607561438        4.8085482155
Ti         7.5692357041        9.4632717324        2.4090214886
Ti         9.4623774081        7.5698963561        7.2062031570
O         0.0016364648        0.0005565030        1.9929388013
O         1.8851789421        1.8875297343        6.8017507179
O         0.0014135252        1.8848752399        4.3975834939
O         1.8870394887        0.0012507935        9.2111714045
O         1.8828562811        0.0015426092        5.2173876045
O        -0.0007881476        1.8883829251        0.4084272865
O         1.8876512357        1.8818592061        2.8118629068
O         0.0020407506       -0.0013285422        7.6232296941
O         0.0015200568        3.7755913896        1.9898094777
O         1.8853845586       13.2366919245        6.8028293559
O        11.3512733691        1.8851701548        4.3969636019
O         5.6725381356        0.0024412615        9.2088574187
O         1.8831640078        3.7758621882        5.2183263334
O        -0.0006422850       13.2375141379        0.4036337671
O         5.6719060733        1.8819600509        2.8108842587
O        11.3514935900       -0.0001842956        7.6232438439
O         3.7754939298       -0.0000863172        7.6259636526
O        13.2368248566        1.8814628772        2.8112707159
O        13.2366367258        0.0018259275        9.2090186675
O         3.7758598518        1.8853506012        4.3948230913
O         1.8855627551        5.6719316858        6.8029463448
O         0.0014532684       11.3517547294        1.9912462176