     192
 i =        1, E =     -5783.2212581709
Ti         0.0006643944        0.0006647687       -0.0000002612
Ti        -0.0006919980       -0.0006869727        0.0000017396
Ti         0.0006659301       -0.0007132600       -0.0005881667
Ti        -0.0007141581        0.0006697767        0.0005906648
Ti         0.0006698282       -0.0011753537        0.0002873494
Ti        -0.0007139806       -0.0007109523       -0.0005885694
Ti         0.0006789419       -0.0006945208        0.0000023030
Ti        -0.0002286661        0.0006757099        0.0004177905
Ti        -0.0006647867       -0.0011641135        0.0002932506
Ti         0.0006649332       -0.0007098766        0.0000003325
Ti        -0.0002353367       -0.0006482591        0.0001720527
Ti         0.0006976786        0.0006649248       -0.0005871214
Ti        -0.0011765630        0.0006716287       -0.0002854205
Ti        -0.0007091327       -0.0007116434        0.0005925024
Ti        -0.0007074746        0.0006666101       -0.0000034576
Ti        -0.0011642287       -0.0006697139       -0.0002954244
Ti        -0.0006505410       -0.0002326969       -0.0001684527
Ti         0.0006651943        0.0006968279        0.0005860904
Ti         0.0006746884       -0.0002298551       -0.0004156712
Ti        -0.0006993702        0.0006770100        0.0000004596
Ti         0.0006732412        0.0002699518        0.0004166176
Ti        -0.0006711015        0.0011782211       -0.0002984632
Ti         0.0002750986       -0.0006538182       -0.0001709620
Ti         0.0011855507        0.0006690250        0.0002847504
Ti        -0.0006526627        0.0002737669        0.0001690555
Ti         0.0006703585        0.0011867153       -0.0002810773
Ti         0.0011807262       -0.0006639849        0.0002985120
Ti         0.0002737122        0.0006734364       -0.0004192523
Ti        -0.0011478505       -0.0011473636       -0.0000026334
Ti        -0.0007036168       -0.0007059053        0.0000042704
Ti         0.0006336421       -0.0002310026        0.0001691200
Ti        -0.0002318608        0.0006337564       -0.0001682905
Ti        -0.0007108108       -0.0011806037       -0.0002900530
Ti        -0.0011768889       -0.0007116796        0.0002884114
Ti        -0.0002336959       -0.0002322685       -0.0000010643
Ti         0.0006804993        0.0006763446       -0.0000004914
Ti         0.0006968776       -0.0007086222        0.0005888198
Ti        -0.0002362997       -0.0011363786        0.0001159833
Ti        -0.0011670238        0.0006482895        0.0002960217
Ti        -0.0007107688       -0.0002271269        0.0004160181
Ti        -0.0002297663       -0.0007108056       -0.0004173139
Ti         0.0006514364       -0.0011651014       -0.0002928543
Ti        -0.0007065702        0.0007002619       -0.0005915044
Ti        -0.0011367001       -0.0002356350       -0.0001160574
Ti        -0.0011379245        0.0002751790        0.0001162078
Ti        -0.0007098962        0.0011897241        0.0002844998
Ti         0.0002780813       -0.0002309689        0.0000013632
Ti         0.0011776375        0.0006515378       -0.0003017751
Ti        -0.0007125637        0.0002747496       -0.0004208806
Ti        -0.0011472662        0.0011597207        0.0000008709
Ti         0.0011480123       -0.0002321803        0.0001217624
Ti         0.0002740484        0.0006328252        0.0001662560
Ti         0.0006493779        0.0011725216        0.0002994641
Ti        -0.0002334320        0.0002766098       -0.0000014524
Ti        -0.0002266363        0.0011452674       -0.0001194678
Ti         0.0006336579        0.0002753811       -0.0001653472
Ti         0.0011567785       -0.0011428100       -0.0000053036
Ti         0.0002764785       -0.0007104358        0.0004211325
Ti         0.0002754045       -0.0011347368       -0.0001184375
Ti         0.0011887681       -0.0007116937       -0.0002835935
Ti         0.0002765689        0.0002738806        0.0000014904
Ti         0.0011577468        0.0011584997       -0.0000031434
Ti         0.0002823825        0.0011405247        0.0001267986
Ti         0.0011459122        0.0002767024       -0.0001242550
O        -0.0001330792        0.0000321876       -0.0000735627
O         0.0004029868        0.0002721056        0.0001915643
O         0.0000548111        0.0004348733        0.0002796930
O         0.0002953387       -0.0001278177       -0.0001319531
O         0.0004385519        0.0000492185       -0.0002806641
O        -0.0001242076        0.0002965221        0.0001358644
O         0.0002784696        0.0004043972       -0.0001934346
O         0.0000289191       -0.0001345619        0.0000750339
O        -0.0001181645       -0.0006440527       -0.0001143289
O         0.0004375741       -0.0000656824        0.0002838727
O        -0.0002979575        0.0004133722        0.0002010652
O        -0.0001361948       -0.0001146703       -0.0002823712
O         0.0003584808       -0.0006419240       -0.0001990562
O        -0.0001376251       -0.0000398702        0.0000705471
O        -0.0001373622        0.0003477031       -0.0000208496
O        -0.0003143400       -0.0001225120        0.0001288796
O        -0.0006436826       -0.0001184164        0.0001108166
O        -0.0000685059        0.0004344496       -0.0002864606
O        -0.0000384233       -0.0001403504       -0.0000748568
O        -0.0006428820        0.0003582987        0.0001953099
O         0.0003413846       -0.0001371657        0.0000212094
O        -0.0001246146       -0.0003092277       -0.0001257165
O        -0.0001153368       -0.0001377432        0.0002840680
O         0.0004162629       -0.0003013639       -0.0001999700
O        -0.0001133029        0.0001568186       -0.0002809863
O         0.0003618217        0.0006354306        0.0002031656
O         0.0001541164        0.0003486435        0.0000248499
O         0.0006404687       -0.0001201570       -0.0001064336
O         0.0003515909        0.0001550251       -0.0000237847
O        -0.0001168259        0.0006388394        0.0001062106
O         0.0006362277        0.0003608176       -0.0002063425
O         0.0001540817       -0.0001122618        0.0002788945
O        -0.0006260335        0.0000947104        0.0003467064
O         0.0001401573        0.0002912846       -0.0001363680
O         0.0001153970       -0.0006112103        0.0003671247
O         0.0002802373       -0.0004250444        0.0001865288
O         0.0001615797        0.0000275533        0.0000791727
O        -0.0006110356        0.0002908705       -0.0002591029
O         0.0003170431       -0.0006006214       -0.0002931046
O         0.0000575617       -0.0004555875       -0.0002729676
O        -0.0004283694        0.0002783447       -0.0001874969
O        -0.0006109530        0.0001107643       -0.0003659197
O        -0.0005992957        0.0003173542        0.0002951583
O        -0.0004605991        0.0000572596        0.0002712271
O         0.0002919067       -0.0006103321        0.0002608947
O         0.0000290560        0.0001643284       -0.0000850816
O         0.0000945514       -0.0006226435       -0.0003474253
O         0.0002952145        0.0001353304        0.0001407513
O        -0.0005967620       -0.0006157663        0.0002834565
O         0.0001537544       -0.0000430506       -0.0000737532
O        -0.0003334898       -0.0006028405        0.0003009678
O        -0.0001369142       -0.0003613463        0.0000191048
O         0.0001318758       -0.0006439132        0.0001169662
O        -0.0006253090       -0.0001041650       -0.0003501555
O        -0.0001228003       -0.0005940679       -0.0002211921
O        -0.0002986646       -0.0004307632       -0.0001957753
O        -0.0004601304       -0.0000629217       -0.0002787394
O        -0.0006003771       -0.0005913817       -0.0003682629
O        -0.0006425274       -0.0003741220       -0.0001939904
O        -0.0001266886       -0.0006072102       -0.0003711655
O        -0.0006067261       -0.0001264819        0.0003665001
O        -0.0003749018       -0.0006420291        0.0001932734
O        -0.0000659006       -0.0004595040        0.0002785701
O        -0.0005882117       -0.0005997105        0.0003633145
O        -0.0005941827       -0.0001232481        0.0002212096
O        -0.0004267299       -0.0002968685        0.0001978290
O        -0.0001034347       -0.0006271090        0.0003481316
O        -0.0006478366        0.0001396831       -0.0001187797
O        -0.0003633669       -0.0001369526       -0.0000192540
O        -0.0006035129       -0.0003398685       -0.0002992737
O        -0.0006156554       -0.0005954185       -0.0002815801
O        -0.0000445967        0.0001536410        0.0000778938
O         0.0001448231       -0.0003177129        0.0001328344
O        -0.0005827430       -0.0001291948       -0.0001068599
O        -0.0001359755        0.0001191211        0.0002823005
O        -0.0003113339       -0.0006091985       -0.0002648628
O        -0.0006075464       -0.0003057936        0.0002673212
O         0.0001248942       -0.0001391669       -0.0002834400
O        -0.0003159786        0.0001465657       -0.0001350357
O        -0.0001282588       -0.0005847653        0.0001081643
O        -0.0005814624        0.0001493491        0.0001109708
O         0.0001253528        0.0006403395       -0.0001079060
O         0.0001352922       -0.0005981577        0.0002209287
O         0.0006352633       -0.0003746468        0.0002016150
O         0.0001284137        0.0001531356        0.0002814254
O        -0.0005962800        0.0006072682       -0.0002887734
O         0.0005780463       -0.0005981100       -0.0003721373
O         0.0001553416       -0.0003633285       -0.0000194905
O        -0.0003779127        0.0006371479       -0.0002018759
O        -0.0005978797        0.0001377613       -0.0002203171
O        -0.0005974617        0.0005825882        0.0003706981
O        -0.0003603738        0.0001550668        0.0000183880
O         0.0006109839       -0.0005992747        0.0002884954
O         0.0001513962        0.0001317882       -0.0002828637
O         0.0001475249       -0.0005829950       -0.0001080506
O         0.0006401530        0.0001260919        0.0001091117
O         0.0006605029        0.0001178017        0.0003679222
O         0.0005682071        0.0002890331        0.0002565519
O         0.0000834979        0.0005828089        0.0003444259
O         0.0003136144        0.0006527254        0.0002959013
O         0.0005837197        0.0000849443       -0.0003432202
O         0.0006519365        0.0003205082       -0.0002970537
O         0.0002912606        0.0005658424       -0.0002571830
O         0.0001160678        0.0006589956       -0.0003655207
O         0.0006481960       -0.0005900043        0.0003658186
O         0.0005828846       -0.0000986486        0.0003475951
O        -0.0003130606        0.0005702664        0.0002637337
O        -0.0001224144        0.0006456506        0.0002183835
O         0.0005556698       -0.0006241200       -0.0002775648
O         0.0006588914       -0.0001285880       -0.0003677184
O        -0.0001293173        0.0005449236       -0.0001039447
O        -0.0003295239        0.0006517119       -0.0002978999
O        -0.0005868591        0.0006488869       -0.0003670760
O        -0.0001020977        0.0005832215       -0.0003494032
O        -0.0001245081        0.0006603828        0.0003683012
O        -0.0006249336        0.0005565127        0.0002780420
O         0.0005437148       -0.0001283470        0.0001005708
O         0.0006520722       -0.0003300974        0.0002994056
O         0.0006441424       -0.0001214656       -0.0002166057
O         0.0005711112       -0.0003112486       -0.0002633405
O         0.0006435560        0.0001389602        0.0002145940
O         0.0005569876        0.0006143486        0.0002836163
O         0.0001424682        0.0005482997        0.0001029439
O         0.0005804192        0.0006493547        0.0003689824
O         0.0005479881        0.0001415328       -0.0001024209
O         0.0006476520        0.0005817595       -0.0003714174
O         0.0006127309        0.0005600918       -0.0002830833
O         0.0001384801        0.0006437156       -0.0002147488
     192
 i =        2, E =     -5783.2218039145
Ti         0.0000594742        0.0000622696       -0.0000022059
Ti        -0.0005196618       -0.0005213578        0.0000001267
Ti         0.0000594137       -0.0005191731        0.0004927649
Ti        -0.0005224731        0.0000598566       -0.0004922960
Ti         0.0000633868       -0.0010492174        0.0000401499
Ti        -0.0005227060       -0.0000723449        0.0004823659
Ti         0.0004890329       -0.0005219475       -0.0000171623
Ti        -0.0006757946        0.0000591007       -0.0000546736
Ti        -0.0005187339       -0.0010474109       -0.0005313881
Ti         0.0000600417       -0.0000722673        0.0000083795
Ti        -0.0006686852       -0.0005268922       -0.0004513658
Ti         0.0004914060        0.0000603226        0.0005138547
Ti        -0.0010533188        0.0000639589       -0.0000379488
Ti        -0.0000738782       -0.0005222788       -0.0004794782
Ti        -0.0000730993        0.0000611034       -0.0000101304
Ti        -0.0010460192       -0.0005214338        0.0005328621
Ti        -0.0005288290       -0.0006706337        0.0004559159
Ti         0.0000598972        0.0004901867       -0.0005107948
Ti         0.0000592116       -0.0006775597        0.0000566662
Ti        -0.0005223088        0.0004895648        0.0000213699
Ti         0.0000587969        0.0007343770       -0.0000569572
Ti        -0.0005194318        0.0010287919        0.0005216067
Ti         0.0007230442       -0.0005281363        0.0004520641
Ti         0.0010359032        0.0000615007        0.0000292076
Ti        -0.0005284408        0.0007224553       -0.0004555537
Ti         0.0000627838        0.0010358370       -0.0000291930
Ti         0.0010308883       -0.0005207756       -0.0005203678
Ti         0.0007386881        0.0000597204        0.0000520852
Ti        -0.0010330023       -0.0010357085       -0.0000022878
Ti        -0.0000728505       -0.0000768428       -0.0000015567
Ti         0.0004969498       -0.0006665956       -0.0004704607
Ti        -0.0006685711        0.0004980274        0.0004693846
Ti        -0.0000781220       -0.0010569324       -0.0000514507
Ti        -0.0010567475       -0.0000754268        0.0000506210
Ti        -0.0006636830       -0.0006653427       -0.0000020809
Ti         0.0004916537        0.0004879950       -0.0000019302
Ti         0.0004896637       -0.0000722615       -0.0004999130
Ti        -0.0006596457       -0.0010401120       -0.0000616621
Ti        -0.0010468140        0.0004897059       -0.0005504254
Ti        -0.0000745497       -0.0006781012       -0.0000508767
Ti        -0.0006815564       -0.0000739743        0.0000486900
Ti         0.0004893101       -0.0010436287        0.0005494154
Ti        -0.0000734127        0.0004913505        0.0005004801
Ti        -0.0010400679       -0.0006608799        0.0000596924
Ti        -0.0010382313        0.0007181820       -0.0000577737
Ti        -0.0000798831        0.0010352719        0.0000378581
Ti         0.0007185629       -0.0006586822        0.0000016422
Ti         0.0010308340        0.0004902237        0.0005392422
Ti        -0.0000762132        0.0007369249        0.0000478116
Ti        -0.0010366449        0.0010206270        0.0000099268
Ti         0.0010234858       -0.0006632666       -0.0000429049
Ti         0.0007234183        0.0004965871       -0.0004702088
Ti         0.0004877351        0.0010305418       -0.0005389324
Ti        -0.0006607657        0.0007204338        0.0000021494
Ti        -0.0006630908        0.0010209706        0.0000510843
Ti         0.0004978506        0.0007261054        0.0004715254
Ti         0.0010191559       -0.0010340779       -0.0000107178
Ti         0.0007378788       -0.0000747744       -0.0000468854
Ti         0.0007180131       -0.0010375215        0.0000580843
Ti         0.0010365911       -0.0000830281       -0.0000370971
Ti         0.0007181127        0.0007190834       -0.0000002615
Ti         0.0010119384        0.0010172042       -0.0000027244
Ti         0.0007172050        0.0010216595       -0.0000432718
Ti         0.0010236547        0.0007166068        0.0000445100
O         0.0000293807        0.0000385092       -0.0003113532
O         0.0002899161       -0.0000144663        0.0003481668
O         0.0000199959        0.0002877859        0.0000417898
O        -0.0000022581        0.0000276106        0.0000129902
O         0.0002859446        0.0000153114       -0.0000419196
O         0.0000282172       -0.0000008654       -0.0000114347
O        -0.0000111123        0.0002906703       -0.0003494751
O         0.0000430442        0.0000302782        0.0003113796
O         0.0000219146        0.0002271752       -0.0006727532
O         0.0002823202        0.0000065793        0.0000519639
O         0.0000168267        0.0002922584        0.0003765590
O         0.0000947907        0.0000121262       -0.0006111582
O         0.0002958421        0.0002055499        0.0003373132
O         0.0000276809       -0.0000169652        0.0003024179
O         0.0000882445        0.0002833601        0.0002838909
O         0.0000104990        0.0000308526       -0.0000389021
O         0.0002297581        0.0000233750        0.0006722269
O         0.0000068553        0.0002827829       -0.0000568375
O        -0.0000130384        0.0000279345       -0.0003008751
O         0.0002021080        0.0002950695       -0.0003380538
O         0.0002827119        0.0000944581       -0.0002860651
O         0.0000291889        0.0000119882        0.0000398117
O         0.0000125167        0.0000896696        0.0006103941
O         0.0002907859        0.0000188429       -0.0003756620
O         0.0000137896       -0.0001021738       -0.0006152985
O         0.0002919244       -0.0002230584       -0.0003243007
O        -0.0000996179        0.0002853222       -0.0002887632
O        -0.0002500527        0.0000202873       -0.0006611925
O         0.0002863178       -0.0000998054        0.0002886418
O         0.0000217337       -0.0002402149        0.0006601028
O        -0.0002177949        0.0002936701        0.0003237227
O        -0.0001052419        0.0000147574        0.0006147330
O         0.0005241803       -0.0000173255        0.0000951986
O        -0.0000155121        0.0000025454        0.0000113919
O        -0.0000178249       -0.0005574386        0.0002328150
O        -0.0000079373       -0.0002698245        0.0003403259
O        -0.0000139147        0.0000431844        0.0003160424
O         0.0005066291       -0.0000415450       -0.0003755382
O         0.0000062612       -0.0005405455       -0.0005215512
O         0.0000233706       -0.0002613823       -0.0000337651
O        -0.0002682776       -0.0000123723       -0.0003401721
O        -0.0005578808       -0.0000141180       -0.0002316344
O        -0.0005398359        0.0000101665        0.0005218246
O        -0.0002607011        0.0000204712        0.0000304118
O        -0.0000368570        0.0005064614        0.0003759748
O         0.0000413846       -0.0000131047       -0.0003143966
O        -0.0000152196        0.0005271357       -0.0000953983
O         0.0000037851       -0.0000188450       -0.0000104139
O         0.0004757478        0.0001793380       -0.0003584975
O        -0.0000159441       -0.0000186696       -0.0003016658
O         0.0000023051       -0.0005398036        0.0005501542
O         0.0000894475       -0.0002660782       -0.0002919885
O        -0.0000051153        0.0002246993        0.0006760334
O         0.0005213510        0.0000425929       -0.0001064187
O         0.0001090972       -0.0005168649        0.0001420870
O         0.0000134973       -0.0002679539       -0.0003673705
O        -0.0002593713        0.0000097351       -0.0000426695
O        -0.0005312587        0.0002288161        0.0001829086
O         0.0002050867       -0.0002742372        0.0003453507
O         0.0000406580       -0.0005575073       -0.0002427948
O        -0.0005569524        0.0000336861        0.0002412597
O        -0.0002728165        0.0002069564       -0.0003462583
O         0.0000032917       -0.0002604264        0.0000446965
O         0.0002369467       -0.0005314275       -0.0001845459
O        -0.0005171875        0.0001046790       -0.0001416570
O        -0.0002663968        0.0000171945        0.0003672520
O         0.0000402354        0.0005174497        0.0001061794
O         0.0002309133       -0.0000029055       -0.0006772212
O        -0.0002669303        0.0000901077        0.0002909298
O        -0.0005405692       -0.0000025406       -0.0005507930
O         0.0001734772        0.0004793867        0.0003578552
O        -0.0000186678       -0.0000165575        0.0003009863
O        -0.0000119750        0.0000116680       -0.0000358700
O         0.0004555480        0.0000915078        0.0003348261
O         0.0000922590       -0.0000027242        0.0006103201
O         0.0000406662        0.0005137731       -0.0004035619
O         0.0005133509        0.0000388381        0.0004035437
O        -0.0000005644        0.0000911285       -0.0006108282
O         0.0000085447       -0.0000111926        0.0000369688
O         0.0000851227        0.0004540695       -0.0003342447
O         0.0004616099       -0.0000952038       -0.0003374012
O        -0.0000089456       -0.0002454756       -0.0006606368
O        -0.0001256001       -0.0005176517       -0.0001473678
O        -0.0002209725       -0.0002742879       -0.0003301121
O         0.0000018582       -0.0001030848        0.0006149533
O         0.0004766719       -0.0001946038        0.0003416993
O        -0.0002496126       -0.0005313277        0.0001679999
O        -0.0000970946       -0.0002668133        0.0002975435
O        -0.0002762148       -0.0002246613        0.0003302107
O        -0.0005171362       -0.0001151559        0.0001457917
O        -0.0005307183       -0.0002464662       -0.0001686728
O        -0.0002656442       -0.0001001609       -0.0002971653
O        -0.0001909869        0.0004745037       -0.0003411990
O        -0.0001044487        0.0000040160       -0.0006173689
O        -0.0000933708        0.0004621667        0.0003397717
O        -0.0002454625       -0.0000110922        0.0006601346
O         0.0005509730       -0.0000133063        0.0002364411
O        -0.0005308095       -0.0000412808        0.0003647517
O        -0.0000163947       -0.0005441355        0.0000853763
O         0.0000013966        0.0005329373        0.0005232053
O        -0.0005431774       -0.0000150087       -0.0000849393
O         0.0005324473        0.0000066678       -0.0005226443
O        -0.0000420917       -0.0005323583       -0.0003652712
O        -0.0000173908        0.0005524215       -0.0002332157
O         0.0005233534        0.0002275486       -0.0001861824
O        -0.0005463244        0.0000400432        0.0000965537
O         0.0000465064       -0.0005282259        0.0003948774
O         0.0001090399        0.0005066487       -0.0001489567
O        -0.0004939396        0.0001800406        0.0003651681
O         0.0005520852        0.0000388152       -0.0002426960
O         0.0000930795       -0.0004745321        0.0003407799
O         0.0000061373        0.0005331307       -0.0005491378
O         0.0002313114        0.0005219362        0.0001865370
O         0.0000372346       -0.0005479199       -0.0000976170
O         0.0000439024        0.0005518273        0.0002456591
O         0.0001752589       -0.0004929599       -0.0003671226
O        -0.0004752058        0.0000916241       -0.0003421465
O         0.0005325423        0.0000035050        0.0005495168
O         0.0005075689        0.0001050183        0.0001474433
O        -0.0005263067        0.0000514754       -0.0003944412
O         0.0005074854       -0.0001194344       -0.0001536724
O        -0.0004976117       -0.0001970945       -0.0003496704
O        -0.0000921306       -0.0004713935       -0.0003447185
O        -0.0002449185        0.0005233076       -0.0001713710
O        -0.0004694954       -0.0001018700        0.0003438199
O         0.0005228911       -0.0002419614        0.0001688177
O        -0.0001943039       -0.0004965183        0.0003494935
O        -0.0001221292        0.0005083343        0.0001543464
     192
 i =        3, E =     -5783.2221046639
Ti         0.0000465596        0.0000486725       -0.0000010799
Ti        -0.0000845013       -0.0000855939        0.0000001073
Ti         0.0000394855       -0.0000755341        0.0005285209
Ti        -0.0000788200        0.0000397034       -0.0005297100
Ti         0.0000384868       -0.0001199065        0.0002490511
Ti        -0.0000782985       -0.0000306101        0.0005199702
Ti         0.0000803290       -0.0000853538       -0.0000281343
Ti        -0.0003777948        0.0000266055        0.0003536265
Ti        -0.0000892173       -0.0001302243       -0.0007691161
Ti         0.0000466725       -0.0000387047        0.0000072691
Ti        -0.0003784724       -0.0001070394       -0.0008875997
Ti         0.0000746858        0.0000403545        0.0005590427
Ti        -0.0001221601        0.0000390407       -0.0002473553
Ti        -0.0000320600       -0.0000773749       -0.0005174917
Ti        -0.0000393986        0.0000474044       -0.0000089893
Ti        -0.0001298798       -0.0000903442        0.0007699169
Ti        -0.0001084872       -0.0003801838        0.0008903695
Ti         0.0000397641        0.0000728122       -0.0005559350
Ti         0.0000266757       -0.0003792011       -0.0003526109
Ti        -0.0000862498        0.0000801966        0.0000293466
Ti         0.0000263991        0.0003932923        0.0003490010
Ti        -0.0000888208        0.0001072172        0.0007458082
Ti         0.0003909098       -0.0001066430        0.0008836449
Ti         0.0000999730        0.0000380347        0.0002257605
Ti        -0.0001071151        0.0003905962       -0.0008853878
Ti         0.0000389637        0.0000990955       -0.0002268526
Ti         0.0001085704       -0.0000904512       -0.0007451122
Ti         0.0003959494        0.0000273837       -0.0003520578
Ti        -0.0001296729       -0.0001305982       -0.0000011458
Ti        -0.0000398328       -0.0000420793       -0.0000012158
Ti         0.0001017056       -0.0003777596       -0.0009138739
Ti        -0.0003788851        0.0001021564        0.0009144684
Ti        -0.0000302827       -0.0001232624       -0.0002600630
Ti        -0.0001233715       -0.0000287181        0.0002594780
Ti        -0.0003935458       -0.0003943702       -0.0000016794
Ti         0.0000807055        0.0000793242       -0.0000004226
Ti         0.0000740740       -0.0000318828       -0.0005476081
Ti        -0.0003786454       -0.0001484174        0.0001508623
Ti        -0.0001289007        0.0000842901       -0.0007971068
Ti        -0.0000200161       -0.0003782472        0.0003609954
Ti        -0.0003809305       -0.0000200117       -0.0003617764
Ti         0.0000837593       -0.0001285305        0.0007965088
Ti        -0.0000314812        0.0000739015        0.0005467803
Ti        -0.0001481328       -0.0003799034       -0.0001518735
Ti        -0.0001459295        0.0003924766        0.0001466337
Ti        -0.0000331146        0.0000983767        0.0002351296
Ti         0.0004044836       -0.0003908591       -0.0000059896
Ti         0.0001091659        0.0000854598        0.0007749382
Ti        -0.0000212186        0.0003931880       -0.0003583919
Ti        -0.0001300198        0.0001118024        0.0000234728
Ti         0.0001301711       -0.0003797901        0.0001782980
Ti         0.0003916951        0.0001000463       -0.0009087544
Ti         0.0000846872        0.0001093964       -0.0007743258
Ti        -0.0003914953        0.0004057687        0.0000093861
Ti        -0.0003803066        0.0001279826       -0.0001749087
Ti         0.0001007262        0.0003931895        0.0009100804
Ti         0.0001106722       -0.0001300094       -0.0000220643
Ti         0.0003932623       -0.0000215399        0.0003578167
Ti         0.0003933913       -0.0001464648       -0.0001467729
Ti         0.0001005955       -0.0000344389       -0.0002337003
Ti         0.0004048357        0.0004059298       -0.0000013582
Ti         0.0001073442        0.0001096417       -0.0000007883
Ti         0.0003889092        0.0001291117        0.0001705380
Ti         0.0001289186        0.0003910178       -0.0001696893
O        -0.0000938933       -0.0001853479       -0.0001292177
O         0.0000186771        0.0000316257        0.0003156933
O        -0.0001931203        0.0000191189       -0.0002204171
O         0.0000572256       -0.0000951565        0.0003907080
O         0.0000192558       -0.0001942159        0.0002195857
O        -0.0000951727        0.0000562705       -0.0003912198
O         0.0000320320        0.0000179320       -0.0003158662
O        -0.0001829767       -0.0000943626        0.0001303604
O        -0.0000873049        0.0002968502       -0.0004584848
O         0.0000200125        0.0002194920       -0.0002207941
O        -0.0000219450        0.0000162646        0.0003311743
O         0.0002583767       -0.0000840696       -0.0004150038
O         0.0000356356        0.0002788785        0.0005650721
O        -0.0000933381        0.0002080409        0.0001320518
O         0.0002460535        0.0000433274        0.0005339172
O        -0.0000466006       -0.0000962628       -0.0004062948
O         0.0002977057       -0.0000877363        0.0004590847
O         0.0002193423        0.0000198157        0.0002202318
O         0.0002116516       -0.0000929771       -0.0001317003
O         0.0002766211        0.0000348039       -0.0005639318
O         0.0000441850        0.0002504594       -0.0005359798
O        -0.0000961288       -0.0000470291        0.0004071902