     192
 i =        1, E =     -5783.2212581709
Ti        -0.0006922410       -0.0007107107        0.0000020992
Ti         1.8927469570        1.8927546058        4.8075081660
Ti        -0.0006610452        1.8927454967        2.4026312853
Ti         1.8927612700       -0.0006587713        7.2123773929
Ti        -0.0006407080        3.7811904780        0.0017031134
Ti         1.8927787280       13.2394773802        4.8063705336
Ti        11.3460950016        1.8927398274        2.4037166600
Ti         5.6738698965       -0.0006304384        7.2133693579
Ti         1.8927096420        3.7812429612        7.2106921248
Ti        -0.0006852770       13.2394718306        2.4037854405
Ti         5.6738905725        1.8927209367        4.8065204197
Ti        11.3460600989       -0.0006767355       -0.0010963682
Ti         3.7812000203       -0.0006425252       -0.0016967635
Ti        13.2394616048        1.8927716152        4.8086382982
Ti        13.2394868248       -0.0006825561        7.2112609655
Ti         3.7812354748        1.8927206801        2.4043350338
Ti         1.8927136545        5.6738899368        4.8084827494
Ti        -0.0006701079       11.3460684531        0.0010866698
Ti        -0.0006346572        5.6738696507        2.4016373121
Ti         1.8927544549       11.3460998360        7.2112918350
Ti        -0.0006290099        7.5650705065        0.0020966460
Ti         1.8927499931        9.4576871070        4.8080592483
Ti         7.5650804192        1.8927104334        2.4047284942
Ti         9.4576980597       -0.0006368385        7.2129360946
Ti         1.8927136571        7.5650796918        7.2102978001
Ti        -0.0006349221        9.4576912478        2.4020812541
Ti         9.4576760610        1.8927429071        4.8069646437
Ti         7.5650541520       -0.0006358444       -0.0020892424
Ti         3.7812282130        3.7812318529        0.0000051919
Ti        13.2394875140       13.2395057271        4.8075099354
Ti        11.3461424835        5.6738732038        2.4027380491
Ti         5.6738800826       11.3461297107        7.2122756028
Ti        13.2394355080        3.7812294084        7.2095632790
Ti         3.7812181929       13.2394266227        2.4054700143
Ti         5.6738898652        5.6738902571        4.8075131387
Ti        11.3460826900       11.3460904050       -0.0000002434
Ti        11.3460799661       13.2394540163        2.4048680605
Ti         5.6738720148        3.7812354321        7.2116848216
Ti         3.7812293731       11.3461259941       -0.0006044566
Ti        13.2394317635        5.6738829427        4.8096382209
Ti         5.6739001802       13.2394423789        4.8053970548
Ti        11.3461128780        3.7812187514        0.0005965249
Ti        13.2394560837       11.3460700164        7.2101598871
Ti         3.7812375161        5.6738735524        2.4033431091
Ti         3.7812341810        7.5650739614        0.0004066321
Ti        13.2394683875        9.4577103446        4.8091941548
Ti         7.5650801249        5.6738674400        2.4037336876
Ti         9.4576721767       11.3461161631        7.2118409840
Ti        13.2394308332        7.5650742955        7.2091682659
Ti         3.7812333950        9.4576585609        2.4037850944
Ti         9.4576824472        5.6739023972        4.8079478311
Ti         7.5650717518       11.3461351564       -0.0009994369
Ti        11.3461275173        9.4576781974        2.4031771691
Ti         5.6738698206        7.5650719117        7.2112742165
Ti         5.6738940980        9.4576929656        4.8070630534
Ti        11.3461294529        7.5650634275        0.0009924370
Ti         9.4576694509        3.7812267379        7.2112385006
Ti         7.5650681646       13.2394237613        2.4058553040
Ti         7.5650635544        3.7812180720       -0.0004056531
Ti         9.4577085073       13.2394696089        4.8058276305
Ti         7.5650702588        7.5650720527       -0.0000002536
Ti         9.4577042605        9.4576989986        4.8075143014
Ti         7.5650668366        9.4576788714        2.4041732327
Ti         9.4576679015        7.5650685932        7.2108434523
O         0.0012941896        0.0026957811        1.9936224370
O         1.8845892319        1.8897993149        6.7993319547
O         0.0026705691        1.8843776541        4.3965647923
O         1.8897294202        0.0013123477        9.2038359118
O         1.8843672600        0.0026850350        5.2184548792
O         0.0012934554        1.8897228014        0.4111696022
O         1.8897867254        1.8845806777        2.8156930623
O         0.0027025475        0.0012987233        7.6213952337
O         0.0012879559        3.7816909599        1.9935796166
O         1.8843825317       13.2360824450        6.8003051899
O        11.3490340793        1.8845345174        4.3955411603
O         5.6727861970        0.0012994818        9.2052055660
O         1.8847811880        3.7817091958        5.2183653665
O         0.0013197579       13.2360461067        0.4101459211
O         5.6728173350        1.8848686455        2.8142184476
O        11.3490905085        0.0012780070        7.6224608316
O         3.7816923482        0.0012851962        7.6214451677
O        13.2360830001        1.8843952858        2.8147190533
O        13.2360417673        0.0013305493        9.2048892791
O         3.7817184694        1.8847861980        4.3966618064
O         1.8849021711        5.6728025355        6.8007995091
O         0.0012932930       11.3490811577        1.9925508835
O         0.0012984851        5.6728020837        0.4098089309
O         1.8845267178       11.3490458537        5.2194697449
O         0.0012867951        7.5661864773        1.9939291818
O         1.8847794218        9.4572014359        6.8003947796
O         7.5661840865        1.8848601453        4.3970283397
O         9.4572073654        0.0013008241        9.2048243225
O         1.8848422742        7.5661841275        5.2179937736
O         0.0012848016        9.4571999916        0.4101971229
O         9.4571910922        1.8847804702        2.8146360661
O         7.5661969291        0.0012789535        7.6211016924
O         3.7751773552        0.0026466193        1.9923252894
O        13.2372080391        1.8897366396        6.8000820425
O         0.0026416294        5.6705978531        4.3957767766
O         1.8897807950       11.3541309446        9.2031120340
O        13.2371412689        0.0027037461        5.2176340573
O         3.7752943901        1.8898476185        0.4123483358
O         1.8898604864        5.6706622948        2.8163566457
O         0.0026665487       11.3543145781        7.6221772646
O        11.3541413010        1.8897854966        0.4119043102
O         5.6705868141        0.0026497062        5.2192318889
O         5.6706623043        1.8898553672        6.7986492293
O        11.3543352837        0.0026643935        1.9928480058
O         1.8898413712        3.7752931217        9.2026738142
O         0.0027035826       13.2371265909        4.3974013924
O         0.0026425132        3.7751507848        7.6226992103
O         1.8897280749       13.2372410359        2.8149251209
O         3.7753842220        3.7817256875        1.9926242617
O        13.2371825788       13.2360570138        6.8011152557
O        11.3489632031        5.6706173022        4.3948632306
O         5.6728083499       11.3538210073        9.2045699207
O        13.2372109703        3.7817020531        5.2176893415
O         3.7751843018       13.2361086722        0.4114460154
O         5.6728168499        5.6706638871        2.8146183306
O        11.3490414364       11.3541524606        7.6232013128
O        11.3543293761       13.2360721630        0.4109308550
O         5.6706265338        3.7817402023        5.2188539589
O         3.7817153431       11.3539085457        7.6220972565
O        13.2361193052        5.6706415033        2.8155019761
O         5.6706444043       13.2361261090        6.7995348634
O        11.3539067241        3.7817043857        1.9929226176
O        13.2360806666       11.3543291483        9.2040926344
O         3.7817230602        5.6706477873        4.3961821158
O         5.6706622997        5.6728222807        6.8004114224
O        11.3541298307       11.3490412913        1.9918158101
O        13.2361080988        3.7752054000        9.2035856572
O         3.7817034958       13.2371705023        4.3973407490
O        11.3538334553        5.6728037866        0.4104524381
O         5.6706091558       11.3489808742        5.2201553125
O         3.7817337213        3.7753638170        7.6224034233
O        13.2360586326       13.2371841743        2.8138887800
O        13.2371778485       11.3490932013        5.2187038284
O         3.7754346809        5.6728071082        0.4106831483
O         5.6728026654       13.2372671800        2.8135839930
O        11.3489887850        3.7752560401        7.6236373347
O         3.7752529356       11.3489822788        1.9913813747
O        13.2372349380        5.6728091488        6.8014472739
O        11.3490920182       13.2371668867        4.3963238528
O         5.6728184229        3.7754470477        9.2043383081
O         3.7754041139        7.5661614651        1.9930495356
O        13.2372545156        9.4572033660        6.8010631687
O         7.5661930347        5.6706277089        4.3966383149
O         9.4571897690       11.3539107902        9.2041603698
O        13.2372126185        7.5661931125        5.2173510030
O         3.7753757565        9.4571866210        0.4111695815
O         9.4571841361        5.6706643309        2.8151237021
O         7.5661747064       11.3538333614        7.6217270099
O        11.3539306366        9.4571964562        0.4108607764
O         5.6706282684        7.5661708563        5.2183780633
O         5.6706680925        9.4571710326        6.7998944308
O        11.3538185513        7.5661852691        1.9932945020
O         9.4571675902        3.7753996426        9.2038543784
O         7.5662000080       13.2371904318        4.3976785170
O         7.5661652665        3.7754075827        7.6219585957
O         9.4572052443       13.2372576031        2.8139582226
O         7.5686138458        0.0026347967        1.9920382458
O         9.4636677852        1.8898427051        6.7989298110
O         0.0026717853        9.4637632696        4.3960879633
O         1.8898709061        7.5685668197        9.2024216662
O         9.4637558266        0.0026622223        5.2189274153
O         7.5685743762        1.8898511513        0.4126051618
O         1.8898454742        9.4636821182        2.8160965417
O         0.0026450247        7.5685829976        7.6229767582
O         7.5685460753        3.7817299958        1.9924279476
O         9.4637739592       13.2361037856        6.7998303001
O        11.3489952777        9.4636509919        4.3951439957
O         5.6728083604        7.5685683141        9.2041732963
O         9.4635531570        3.7817355869        5.2186447333
O         7.5685800640       13.2361218420        0.4117158592
O         5.6727980038        9.4635059847        2.8144384648
O        11.3489543169        7.5685705531        7.6238875262
O         3.7817238034        7.5685556165        7.6225929511
O        13.2361143181        9.4637763336        2.8151951561
O        13.2361141201        7.5685975884        9.2032985110
O         3.7817439188        9.4635433438        4.3963784010
O         9.4635121948        5.6728016156        6.8005861982
O         7.5685971272       11.3489640028        1.9911259053
O         7.5685532433        5.6728143515        0.4108413138
O         9.4636405270       11.3489866801        5.2198797684
O         7.5685633594        7.5661755508        1.9929053285
O         9.4635654987        9.4571791507        6.8001122031
O         7.5661663575        9.4634783176        4.3968070061
O         9.4571736623        7.5685657759        9.2036695194
O         9.4634711015        7.5661950102        5.2182135064
O         7.5685594523        9.4571739203        0.4113614079
O         9.4571751577        9.4635471534        2.8149176185
O         7.5661766304        7.5685445521        7.6221164587
     192
 i =        2, E =     -5783.2218039145
Ti         0.0006189755        0.0005972229        0.0000056612
Ti         1.8905224963        1.8905372897        4.8075088095
Ti         0.0006189602        1.8904316044        2.4016020053
Ti         1.8904458241        0.0006251248        7.2134134001
Ti         0.0006270040        3.7786188948        0.0027728927
Ti         1.8904652755       13.2380177402        4.8053347258
Ti        11.3482386816        1.8905108943        2.4036923012
Ti         5.6728833314        0.0006358900        7.2153070438
Ti         1.8906133677        3.7787013845        7.2106319687
Ti         0.0006233643       13.2379812138        2.4037905325
Ti         5.6729212723        1.8906744986        4.8056243927
Ti        11.3482896972        0.0005988623       -0.0021052728
Ti         3.7786328983        0.0006265151       -0.0027668158
Ti        13.2380099482        1.8904674969        4.8096816260
Ti        13.2379965163        0.0006294033        7.2112474278
Ti         3.7786975661        1.8906192319        2.4043891760
Ti         1.8906716014        5.6729315320        4.8093815679
Ti         0.0006080171       11.3482909037        0.0020909311
Ti         0.0006299606        5.6728856454        2.3997018063
Ti         1.8905213875       11.3482429561        7.2113151889
Ti         0.0006292707        7.5661848228        0.0040172734
Ti         1.8906379093        9.4602575331        4.8080661833
Ti         7.5661871574        1.8906616566        2.4056063735
Ti         9.4602867510        0.0006386157        7.2139680343
Ti         1.8906663360        7.5661836096        7.2094188801
Ti         0.0006389563        9.4602843936        2.4010565048
Ti         9.4602503391        1.8906416367        4.8069512778
Ti         7.5661747890        0.0006244816       -0.0040090534
Ti         3.7787539493        3.7787582912        0.0000054836
Ti        13.2380069643       13.2380246978        4.8075242782
Ti        11.3481064610        5.6729045501        2.4018064866
Ti         5.6729118853       11.3480952993        7.2132094781
Ti        13.2379953167        3.7786578670        7.2084811868
Ti         3.7786540445       13.2379887362        2.4065497631
Ti         5.6729751628        5.6729790423        4.8075110273
Ti        11.3482273448       11.3482343582        0.0000019319
Ti        11.3483118769       13.2380003682        2.4058755624
Ti         5.6729357413        3.7787871395        7.2124459536
Ti         3.7786807349       11.3481350106       -0.0006841790
Ti        13.2380089094        5.6729056861        4.8115843896
Ti         5.6729151450       13.2380094045        4.8034454070
Ti        11.3481287773        3.7786693347        0.0006827279
Ti        13.2380043704       11.3483015580        7.2091455600
Ti         3.7787875985        5.6729405832        2.4025785592
Ti         3.7787776014        7.5661327892        0.0011499128
Ti        13.2380245964        9.4603095040        4.8102307286
Ti         7.5661320367        5.6729509892        2.4037165529
Ti         9.4602439380       11.3481415366        7.2118736986
Ti        13.2380053743        7.5661999228        7.2072320260
Ti         3.7787654495        9.4601609656        2.4038246200
Ti         9.4601633346        5.6729705845        4.8087490456
Ti         7.5661749206       11.3480949845       -0.0019142776
Ti        11.3481508718        9.4602404645        2.4031371356
Ti         5.6729561082        7.5661234142        7.2112902440
Ti         5.6729659372        9.4601680493        4.8062502236
Ti        11.3480915410        7.5661670448        0.0019062984
Ti         9.4601622175        3.7787624005        7.2111920055
Ti         7.5662011615       13.2379978299        2.4077892698
Ti         7.5661279820        3.7787706906       -0.0011529728
Ti         9.4603071700       13.2380317633        4.8047917202
Ti         7.5661183450        7.5661180815        0.0000009490
Ti         9.4602070994        9.4601980856        4.8075116871
Ti         7.5661481163        9.4601505602        2.4049635911
Ti         9.4601464471        7.5661439935        7.2100533086
O         0.0010787390        0.0017626513        1.9940584633
O         1.8841137259        1.8890998253        6.7991298615
O         0.0018063731        1.8840029924        4.3970915519
O         1.8890398962        0.0011363914        9.2035877543
O         1.8840105327        0.0018169219        5.2179294495
O         0.0011312872        1.8890346800        0.4114281343
O         1.8890920822        1.8841100191        2.8158927868
O         0.0017604379        0.0010762312        7.6209636815
O         0.0011626324        3.7787805185        1.9945696243
O         1.8840263075       13.2367834810        6.8008254633
O        11.3496267729        1.8840988037        4.3953185872
O         5.6715832530        0.0012011218        9.2066072627
O         1.8841181072        3.7788564496        5.2173260577
O         0.0010875870       13.2368177725        0.4097156029
O         5.6716290225        1.8841781853        2.8127942280
O        11.3496710452        0.0011193603        7.6227410801
O         3.7787790532        0.0011572745        7.6204485992
O        13.2367799265        1.8840255325        2.8142050176
O        13.2368158592        0.0010863131        9.2053010734
O         3.7788615105        1.8841242157        4.3976891322
O         1.8841876597        5.6716042467        6.8022295937
O         0.0011285261       11.3496667527        1.9922718920
O         0.0011955665        5.6715985686        0.4084155601
O         1.8841051002       11.3496270817        5.2196946317
O         0.0011912720        7.5675243425        1.9953051810
O         1.8841357874        9.4600835900        6.8013844027
O         7.5675080317        1.8841718565        4.3984353530
O         9.4601542482        0.0011687257        9.2057799138
O         1.8841640946        7.5675119654        5.2165915903
O         0.0011663780        9.4601314431        0.4092461272
O         9.4600713626        1.8841313687        2.8136397391
O         7.5675321080        0.0011862644        7.6197247933
O         3.7680454663        0.0018931553        1.9930407690
O        13.2372968046        1.8890369401        6.7998201475
O         0.0019396149        5.6654501537        4.3960587150
O         1.8890825167       11.3543963763        9.2029124423
O        13.2373315392        0.0017659852        5.2172023643
O         3.7683082330        1.8892252731        0.4123358324
O         1.8892790374        5.6656068278        2.8167285083
O         0.0018000427       11.3544754699        7.6216505222
O        11.3543908570        1.8890879720        0.4121014029
O         5.6654356854        0.0019350859        5.2189509958
O         5.6656149438        1.8892717262        6.7982818235
O        11.3544740983        0.0018021512        1.9933736203
O         1.8892159962        3.7683107765        9.2026852267
O         0.0017647898       13.2373270337        4.3978125399
O         0.0018895846        3.7680278682        7.6219781351
O         1.8890328848       13.2373144202        2.8151948510
O         3.7685261189        3.7789906582        1.9939392690
O        13.2373429005       13.2368297096        6.8015366689
O        11.3494496501        5.6655287761        4.3944619336
O         5.6716117092       11.3543393679        9.2060107647
O        13.2372482297        3.7787973209        5.2167014073
O         3.7680597702       13.2366992363        0.4107374927
O         5.6716768988        5.6656478579        2.8130606157
O        11.3496358999       11.3543923535        7.6234197740
O        11.3544686388       13.2367723680        0.4104037447
O         5.6655559789        3.7790712494        5.2177476254
O         3.7788535331       11.3543876312        7.6210570202
O        13.2366657242        5.6655373962        2.8152276818
O         5.6655445354       13.2366789912        6.7997981932
O        11.3543801287        3.7788447433        1.9939661751
O        13.2367830406       11.3544722989        9.2046121313
O         3.7790497987        5.6655907930        4.3972783537
O         5.6656447982        5.6716868899        6.8019679317
O        11.3543843421       11.3496310508        1.9916038780
O        13.2367022543        3.7680789171        9.2042858905
O         3.7787809767       13.2372378566        4.3983229108
O        11.3543448587        5.6716095969        0.4090148198
O         5.6655129763       11.3494573313        5.2205622333
O         3.7790060950        3.7685049910        7.6210945201
O        13.2368274687       13.2373443956        2.8134868379
O        13.2372823949       11.3496714852        5.2189935514
O         3.7686848428        5.6716463842        0.4089934055
O         5.6716078143       13.2372504024        2.8121825917
O        11.3495104096        3.7682642370        7.6236567443
O         3.7682700541       11.3495165811        1.9913702045
O        13.2372395088        5.6716037126        6.8028444771
O        11.3496784940       13.2372771839        4.3960284204
O         5.6716680795        3.7686903353        9.2060292844
O         3.7686488330        7.5674475602        1.9947162315
O        13.2372708397        9.4601476570        6.8020107208
O         7.5674628434        5.6655709303        4.3981697061
O         9.4600729235       11.3543875620        9.2051557617
O        13.2372290674        7.5675291224        5.2159755034
O         3.7685168436        9.4599369325        0.4099013614
O         9.4598747544        5.6656245674        2.8140680758
O         7.5675000396       11.3543450449        7.6203121579
O        11.3543959588        9.4600844602        0.4098627615
O         5.6655734623        7.5674313290        5.2168502945
O         5.6656340285        9.4598653988        6.8009433673
O        11.3543417025        7.5675094326        1.9947051684
O         9.4599249986        3.7685329832        9.2051181706
O         7.5675314693       13.2372179024        4.3990549536
O         7.5674436092        3.7686445203        7.6202917395
O         9.4601524829       13.2372798213        2.8130165841
O         7.5742072723        0.0019287300        1.9923262651
O         9.4704230723        1.8892202643        6.7989532105
O         0.0018967322        9.4706525288        4.3968173974
O         1.8892828281        7.5740924088        9.2020643447
O         9.4706475090        0.0018940612        5.2182020443
O         7.5740985375        1.8892718981        0.4129562774
O         1.8892243488        9.4704292934        2.8160708197
O         0.0019397736        7.5741536046        7.6226873065
O         7.5740358322        3.7790601898        1.9935379167
O         9.4706683268       13.2367083293        6.8005468093
O        11.3495095979        9.4704114797        4.3951392812
O         5.6716637874        7.5740527536        9.2057336644
O         9.4701802444        3.7789877955        5.2173275053
O         7.5741487775       13.2366654612        0.4114389096
O         5.6716447084        9.4700461346        2.8127370141
O        11.3494426563        7.5740917896        7.6242837774
O         3.7790546309        7.5740536478        7.6214765669
O        13.2367142259        9.4706737705        2.8144755925
O        13.2366588575        7.5741831046        9.2035696865
O         3.7789961352        9.4701713138        4.3976953625
O         9.4700475541        5.6716515975        6.8022744872
O         7.5741322250       11.3494512871        1.9907339657
O         7.5740220268        5.6716786837        0.4092875747
O         9.4704017262       11.3494999124        5.2198809366
O         7.5740330584        7.5674423345        1.9944329160
O         9.4702059294        9.4599516788        6.8013814462
O         7.5674386893        9.4700269825        4.3984739366
O         9.4598647659        7.5740711358        9.2047263980
O         9.4700148448        7.5674744861        5.2165472799
O         7.5740517186        9.4598627169        0.4103057022
O         9.4599450580        9.4701984711        2.8136488339
O         7.5674493009        7.5740067769        7.6205893799
     192
 i =        3, E =     -5783.2221046639
Ti         0.0006576052        0.0006370165        0.0000036621
Ti         1.8890191334        1.8890314308        4.8075084010
Ti         0.0006904942        1.8889399766        2.4020025343
Ti         1.8889574196        0.0006930766        7.2130158971
Ti         0.0007339866        3.7758937387        0.0028536180
Ti         1.8889773520       13.2378697035        4.8057304486
Ti        11.3496725359        1.8890074730        2.4036979291
Ti         5.6713466563        0.0007791923        7.2158952566
Ti         1.8891029859        3.7759918558        7.2101222271
Ti         0.0006630353       13.2378673541        2.4037930815
Ti         5.6713839203        1.8892135506        4.8046003831
Ti        11.3497067776        0.0006686258       -0.0017113587
Ti         3.7759074375        0.0007319655       -0.0028462837
Ti        13.2378639735        1.8889753808        4.8092840973
Ti        13.2378845328        0.0006702570        7.2112487485
Ti         3.7759893586        1.8891081507        2.4048971437
Ti         1.8892133273        5.6713946413        4.8104078532
Ti         0.0006777099       11.3497119838        0.0016934095
Ti         0.0007771703        5.6713477523        2.3991144292
Ti         1.8890188226       11.3496742762        7.2113154536
Ti         0.0007754106        7.5678518501        0.0045730642
Ti         1.8891263390        9.4629477734        4.8085458932
Ti         7.5678506859        1.8892019951        2.4065962300
Ti         9.4629926365        0.0007392542        7.2140204715
Ti         1.8892040819        7.5678451506        7.2084260661
Ti         0.0007366092        9.4629935040        2.4010044059
Ti         9.4629413689        1.8891327314        4.8064722133
Ti         7.5678441226        0.0007705223       -0.0045647867
Ti         3.7760945889        3.7760957055        0.0000029241
Ti        13.2378957498       13.2379122971        4.8075234891
Ti        11.3494958896        5.6713729812        2.4007845565
Ti         5.6713795974       11.3494832774        7.2142291668
Ti        13.2378075529        3.7759290562        7.2083994544
Ti         3.7759282277       13.2378016803        2.4066289906
Ti         5.6714664838        5.6714701038        4.8075100398
Ti        11.3496599764       11.3496654814        0.0000003967
Ti        11.3497281587       13.2378568909        2.4054830082
Ti         5.6714017828        3.7761820746        7.2129238883
Ti         3.7759708946       11.3495753654       -0.0011868649
Ti        13.2377851679        5.6713645408        4.8121695503
Ti         5.6713725299       13.2377854017        4.8028549091
Ti        11.3495693036        3.7759606160        0.0011848398
Ti        13.2378573476       11.3497201148        7.2095434267
Ti         3.7761822973        5.6714071423        2.4020969018
Ti         3.7761723276        7.5677972517        0.0016043202
Ti        13.2378401876        9.4630199822        4.8102822102
Ti         7.5677637108        5.6714479064        2.4036899347
Ti         9.4629331287       11.3495791698        7.2123471652
Ti        13.2377810195        7.5678690203        7.2066762868
Ti         3.7761007024        9.4628026100        2.4038517697
Ti         9.4627431908        5.6714301705        4.8092645210
Ti         7.5678346617       11.3494881093       -0.0029013705
Ti        11.3495851942        9.4629303894        2.4026603344
Ti         5.6714513394        7.5677558642        7.2113166080
Ti         5.6714279185        9.4627481806        4.8057381875
Ti        11.3494860227        7.5678289627        0.0028938254
Ti         9.4628013326        3.7761013736        7.2111607579
Ti         7.5678740121       13.2377754857        2.4083454787
Ti         7.5677906464        3.7761683616       -0.0016069413
Ti         9.4630135390       13.2378509417        4.8047391266
Ti         7.5677512776        7.5677511238        0.0000021516
Ti         9.4628468108        9.4628423039        4.8075086862
Ti         7.5678163485        9.4627309520        2.4054498761
Ti         9.4627299146        7.5678085112        7.2095647512
O         0.0013934013        0.0017020792        1.9936332186
O         1.8845894452        1.8877076279        6.7995268923
O         0.0017159447        1.8844619391        4.3979375911
O         1.8876416863        0.0014566502        9.2027632781
O         1.8844622557        0.0017189554        5.2170856875
O         0.0014565125        1.8876404497        0.4122587536
O         1.8877060956        1.8845904556        2.8154927092
O         0.0017032853        0.0013949067        7.6213848341
O         0.0014612651        3.7768326725        1.9932494815
O         1.8844586215       13.2368053743        6.8016948560
O        11.3509563730        1.8845923994        4.3957855757
O         5.6709329095        0.0014516504        9.2063282240
O         1.8846032249        3.7768795682        5.2173864762
O         0.0013908104       13.2368144679        0.4101138015
O         5.6709756374        1.8845927284        2.8118392943
O        11.3510166108        0.0014592456        7.6235037097
O         3.7768348324        0.0014634732        7.6217665825
O        13.2368048998        1.8844584381        2.8133263843
O        13.2368120377        0.0013890695        9.2049033158
O         3.7768851040        1.8846057644        4.3976239689
O         1.8845961169        5.6709512962        6.8031835548
O         0.0014588102       11.3510160541        1.9915096214