     192
 i =        1, E =     -5765.3452536761
Ti         0.0006214104        0.0006189824       -0.0000101870
Ti        -0.0012379747       -0.0012228102       -0.0000146839
Ti         0.0006348554       -0.0012405286       -0.0007043636
Ti        -0.0012482192        0.0006084533        0.0007351441
Ti         0.0006325009       -0.0016237665        0.0004386578
Ti        -0.0012614651       -0.0006917754       -0.0007199384
Ti         0.0011928641       -0.0012233767        0.0000155777
Ti        -0.0005192542        0.0006218126        0.0006048664
Ti        -0.0011818384       -0.0016468651        0.0002961379
Ti         0.0006328875       -0.0007146224        0.0000109900
Ti        -0.0005192160       -0.0011779309        0.0001095110
Ti         0.0012199704        0.0006276378       -0.0007404815
Ti        -0.0016320706        0.0006281862       -0.0004491385
Ti        -0.0007019941       -0.0012419683        0.0007251016
Ti        -0.0007042022        0.0006345411        0.0000108313
Ti        -0.0016233536       -0.0011983769       -0.0002814062
Ti        -0.0012039406       -0.0005225180       -0.0001483409
Ti         0.0006623897        0.0011972923        0.0007617832
Ti         0.0006609622       -0.0005453426       -0.0005981841
Ti        -0.0012145370        0.0012151456        0.0000175506
Ti         0.0006814473        0.0006127703        0.0006050288
Ti        -0.0012069129        0.0016287580       -0.0002968603
Ti         0.0005905036       -0.0011963495       -0.0001132726
Ti         0.0016577835        0.0006139204        0.0004318406
Ti        -0.0011722305        0.0006236048        0.0001384891
Ti         0.0006414965        0.0016839183       -0.0004390088
Ti         0.0016534115       -0.0012208409        0.0002722869
Ti         0.0005957841        0.0006359313       -0.0006068773
Ti        -0.0016174480       -0.0016246859       -0.0000238025
Ti        -0.0006929084       -0.0006855642       -0.0000078630
Ti         0.0011287413       -0.0005286127        0.0001569317
Ti        -0.0005301914        0.0011465981       -0.0001202966
Ti        -0.0007194087       -0.0016525448       -0.0004327182
Ti        -0.0016296143       -0.0007265427        0.0004280104
Ti        -0.0005120358       -0.0005413304        0.0000008960
Ti         0.0011820717        0.0011760702       -0.0000089491
Ti         0.0011996353       -0.0006979643        0.0007347319
Ti        -0.0005530788       -0.0016097710        0.0001431341
Ti        -0.0016502118        0.0011924776        0.0003013546
Ti        -0.0007133611       -0.0005362516        0.0005980528
Ti        -0.0005259745       -0.0006823237       -0.0006064606
Ti         0.0011898923       -0.0016608678       -0.0002940328
Ti        -0.0007371190        0.0011981559       -0.0007372417
Ti        -0.0016213072       -0.0005065031       -0.0001655151
Ti        -0.0016240683        0.0005875192        0.0001545269
Ti        -0.0007274902        0.0016494242        0.0004326093
Ti         0.0006178464       -0.0005268698        0.0000091956
Ti         0.0016746451        0.0011694679       -0.0002661448
Ti        -0.0007263160        0.0006255135       -0.0006223329
Ti        -0.0016430920        0.0016352569        0.0000041575
Ti         0.0016360422       -0.0004938541        0.0001183710
Ti         0.0005981990        0.0011422056        0.0001092343
Ti         0.0011519924        0.0016414833        0.0002923564
Ti        -0.0005445158        0.0006282780       -0.0000062548
Ti        -0.0005695798        0.0016032602       -0.0001128870
Ti         0.0011234559        0.0006569111       -0.0001253235
Ti         0.0016527162       -0.0016387060        0.0000000504
Ti         0.0005996838       -0.0006699230        0.0006111136
Ti         0.0005847830       -0.0016124389       -0.0001470060
Ti         0.0016659051       -0.0006566639       -0.0004406887
Ti         0.0006042179        0.0006194098        0.0000108092
Ti         0.0017052797        0.0015713459       -0.0000011463
Ti         0.0006437697        0.0015931818        0.0001146689
Ti         0.0016487837        0.0006493008       -0.0001734613
O        -0.0001854912        0.0002309440       -0.0022291630
O         0.0011080329        0.0003908644       -0.0023252313
O         0.0002401886        0.0011694550       -0.0019744590
O         0.0004286910       -0.0001710571       -0.0025248228
O         0.0012008862        0.0002640846        0.0019899489
O        -0.0001616717        0.0004501174        0.0025426301
O         0.0004392814        0.0011197308        0.0023123423
O         0.0002207035       -0.0001728055        0.0022259113
O        -0.0002096304       -0.0004743765       -0.0022073290
O         0.0011832826       -0.0002603437       -0.0019865407
O        -0.0004300989        0.0011402894       -0.0023168267
O        -0.0000568553       -0.0001864691       -0.0023032431
O         0.0010646613       -0.0004535827        0.0019797208
O        -0.0002076884       -0.0002470852        0.0022281483
O        -0.0000722934        0.0010239005        0.0020835757
O        -0.0004587877       -0.0001722394        0.0025377617
O        -0.0004607261       -0.0001624931        0.0021891713
O        -0.0002541659        0.0011745478        0.0019777692
O        -0.0002290003       -0.0001848068       -0.0022264192
O        -0.0004708699        0.0010202329       -0.0019819271
O         0.0009701074       -0.0000578246       -0.0020894851
O        -0.0001848169       -0.0004425804       -0.0025393792
O        -0.0002139645       -0.0000597686        0.0023012649
O         0.0011263084       -0.0004483683        0.0023248656
O        -0.0002075703        0.0000628108       -0.0022931236
O         0.0010317240        0.0004703846       -0.0019862076
O         0.0000811326        0.0010020397       -0.0020794386
O         0.0004486567       -0.0001828565       -0.0021961034
O         0.0010236315        0.0000621994        0.0020980127
O        -0.0002301552        0.0004457726        0.0021942498
O         0.0004487844        0.0010494832        0.0019749012
O         0.0000735179       -0.0001620622        0.0023124927
O        -0.0003167509        0.0002429127       -0.0019122546
O         0.0002656938        0.0004450203       -0.0025514593
O         0.0002530838       -0.0008443367       -0.0019664562
O         0.0004287355       -0.0011439495       -0.0023329318
O         0.0002473405        0.0002501938        0.0022410799
O        -0.0003033479        0.0003852387        0.0022515244
O         0.0003665911       -0.0008726559        0.0022899501
O         0.0002284660       -0.0011763220        0.0019873290
O        -0.0011593786        0.0004046325        0.0023356627
O        -0.0008622186        0.0002763349        0.0019745989
O        -0.0008689868        0.0003479967       -0.0022872057
O        -0.0011665927        0.0002593666       -0.0020007626
O         0.0003822662       -0.0003052234       -0.0022436223
O         0.0002358318        0.0002325120       -0.0022290227
O         0.0002539169       -0.0002788277        0.0019035986
O         0.0004588520        0.0002786530        0.0025451026
O        -0.0003328569       -0.0004603777       -0.0019182558
O         0.0002829057       -0.0002474311       -0.0022243011
O        -0.0003718256       -0.0008632933       -0.0022781191
O        -0.0000802010       -0.0010152810       -0.0020835124
O         0.0002386484       -0.0004688688        0.0022197379
O        -0.0002744392       -0.0002397902        0.0019107473
O        -0.0000887871       -0.0008918112        0.0019444066
O        -0.0004372878       -0.0011367732        0.0023316568
O        -0.0011755135       -0.0002578366        0.0019864748
O        -0.0008753975       -0.0004964953        0.0018903287
O        -0.0004639515       -0.0010428459        0.0019964248
O        -0.0002601312       -0.0008598519        0.0019548772
O        -0.0008567859       -0.0002848751       -0.0019734229
O        -0.0010224718       -0.0004704317       -0.0019861764
O        -0.0002303022       -0.0011516191       -0.0019871334
O        -0.0005007878       -0.0008917307       -0.0018858025
O        -0.0009057114       -0.0000821665       -0.0019389817
O        -0.0011144759       -0.0004419968       -0.0023236067
O        -0.0002538676       -0.0002714408       -0.0019052268
O        -0.0004705224        0.0002262265       -0.0022002150
O        -0.0010004650       -0.0000570725        0.0020741407
O        -0.0008639042       -0.0003750133        0.0022706620
O        -0.0004685294       -0.0003234433        0.0019196619
O        -0.0002461031        0.0002635545        0.0022242658
O         0.0002523488       -0.0004624044        0.0025440960
O        -0.0003383899       -0.0000836015        0.0020146189
O        -0.0000596248        0.0002293990        0.0023136177
O        -0.0004001085       -0.0002779234        0.0022490319
O        -0.0002873682       -0.0004211251       -0.0022416519
O         0.0002647314       -0.0000632873       -0.0022953755
O        -0.0004537263        0.0002068900       -0.0025344817
O        -0.0000736658       -0.0003361268       -0.0020064835
O        -0.0003336366        0.0000863714       -0.0020100457
O         0.0002749266        0.0004583249       -0.0022093656
O         0.0000926495       -0.0008871671       -0.0019436410
O         0.0004509378       -0.0010131614       -0.0019847611
O         0.0002626636        0.0000691284        0.0023101687
O        -0.0003238510        0.0004597517        0.0019092377
O         0.0004750520       -0.0009021829        0.0018905429
O         0.0000810874       -0.0010059579        0.0020774492
O        -0.0010244176        0.0004573634        0.0020022613
O        -0.0009055112        0.0000822223        0.0019374052
O        -0.0008705247        0.0004996351       -0.0018832118
O        -0.0009739018        0.0000713757       -0.0020984426
O         0.0004665231       -0.0003226649       -0.0018906627
O         0.0000687935        0.0001915626       -0.0023050593
O         0.0000744577       -0.0003377271        0.0019980568
O         0.0004373479        0.0002208427        0.0022010237
O         0.0009149714        0.0002646079       -0.0019863895
O         0.0002055721        0.0003599201       -0.0022565235
O         0.0002548125        0.0002258755       -0.0018983357
O         0.0003738729        0.0009063807       -0.0022928817
O         0.0001999485        0.0002752728        0.0019319251
O         0.0009267921        0.0003523056        0.0022888375
O         0.0003955199        0.0002035158        0.0022625789
O         0.0002543831        0.0009146042        0.0019541156
O         0.0009465946       -0.0005011502       -0.0018830169
O         0.0001904014       -0.0002624882       -0.0019105397
O        -0.0003846292        0.0002465355       -0.0022719937
O        -0.0000839010        0.0009480658       -0.0019387667
O         0.0002612825       -0.0004667549        0.0019024054
O         0.0009201476       -0.0002553985        0.0019714324
O        -0.0000665135        0.0002894018        0.0020036712
O        -0.0003797449        0.0009097616        0.0022941712
O        -0.0005055715        0.0009609064        0.0018936710
O        -0.0002867044        0.0001924329        0.0019073728
O        -0.0002641619        0.0009040312       -0.0019560045
O        -0.0004877197        0.0002682512       -0.0019175529
O         0.0002547515       -0.0000580122       -0.0020017362
O         0.0009186414       -0.0003700487       -0.0022617334
O         0.0009586570       -0.0000772431        0.0019408525
O         0.0001824224       -0.0004237237        0.0022336928
O         0.0009624057        0.0000879460       -0.0019524984
O         0.0002287498        0.0004681100       -0.0019294113
O         0.0000766835        0.0003247114       -0.0019914135
O         0.0004809904        0.0009268059       -0.0019071582
O         0.0002123480        0.0000735750        0.0020397336
O         0.0009271919        0.0004779072        0.0018889846
O         0.0004618271        0.0002719896        0.0019269247
O         0.0001090358        0.0009556358        0.0019486580
     192
 i =        2, E =     -5765.3496243776
Ti        -0.0000568384       -0.0000388685       -0.0000043167
Ti         0.0005177902        0.0004841704        0.0000051430
Ti        -0.0000512968        0.0005686899        0.0008932086
Ti         0.0005578429       -0.0000475946       -0.0009532387
Ti        -0.0000735718       -0.0005983209        0.0001583532
Ti         0.0005608518        0.0001183094        0.0009059021
Ti        -0.0005492935        0.0005211092       -0.0000602090
Ti        -0.0012467630       -0.0000510220       -0.0004966816
Ti         0.0004849757       -0.0006284480       -0.0010373147
Ti        -0.0000546094        0.0000752120        0.0000079239
Ti        -0.0012481637        0.0004257101       -0.0004116563
Ti        -0.0005833563       -0.0000342628        0.0009499858
Ti        -0.0006070223       -0.0000539480       -0.0001417041
Ti         0.0001135054        0.0005601527       -0.0008918010
Ti         0.0001095217       -0.0000195422       -0.0000017814
Ti        -0.0006403877        0.0004625987        0.0010551782
Ti         0.0004072442       -0.0012283404        0.0004473745
Ti        -0.0000593867       -0.0005945842       -0.0008937359
Ti        -0.0000753498       -0.0012582005        0.0004762763
Ti         0.0005368071       -0.0005468703        0.0000120408
Ti        -0.0000655708        0.0013103515       -0.0004618647
Ti         0.0004829302        0.0005393689        0.0010443293
Ti         0.0013193388        0.0004260297        0.0004399768
Ti         0.0005116054       -0.0000514200        0.0001243003
Ti         0.0004437035        0.0013132132       -0.0004468775
Ti        -0.0000803299        0.0005434740       -0.0001505873
Ti         0.0005368639        0.0004386777       -0.0010451387
Ti         0.0013165865       -0.0000452160        0.0004816462
Ti        -0.0006455504       -0.0006392108       -0.0000251000
Ti         0.0001129765        0.0000792209       -0.0000305962
Ti        -0.0004572414       -0.0012436098       -0.0004763568
Ti        -0.0012503914       -0.0004785356        0.0004290392
Ti         0.0000934283       -0.0006060348       -0.0001404565
Ti        -0.0006040240        0.0000948853        0.0001723376
Ti        -0.0012377756       -0.0012550049        0.0000316724
Ti        -0.0005444718       -0.0005518282        0.0000492450
Ti        -0.0005830489        0.0000719083       -0.0009320081
Ti        -0.0012709896       -0.0006729128       -0.0005501425
Ti        -0.0006271573       -0.0004987961       -0.0010810089
Ti         0.0001290553       -0.0012458087       -0.0004849801
Ti        -0.0012409232        0.0000753836        0.0004802460
Ti        -0.0004790713       -0.0006325636        0.0010671705
Ti         0.0001098979       -0.0005949475        0.0009198804
Ti        -0.0006866670       -0.0012431467        0.0005326239
Ti        -0.0006752988        0.0013025437       -0.0005791341
Ti         0.0000903602        0.0005344857        0.0001077109
Ti         0.0013422296       -0.0012551231        0.0000201397
Ti         0.0005221314       -0.0004988834        0.0010709328
Ti         0.0001247279        0.0013037975        0.0004640736
Ti        -0.0006556626        0.0005811191        0.0000196486
Ti         0.0005784769       -0.0012129281       -0.0005678767
Ti         0.0013115933       -0.0004726391       -0.0004632199
Ti        -0.0004840196        0.0005661411       -0.0010519210
Ti        -0.0012636048        0.0013334951        0.0000004735
Ti        -0.0012641122        0.0006350310        0.0006040125
Ti        -0.0004557584        0.0013144829        0.0004921841
Ti         0.0005880524       -0.0006438831        0.0000225545
Ti         0.0013127847        0.0000917273       -0.0004287017
Ti         0.0013057686       -0.0006743632        0.0005707009
Ti         0.0004980989        0.0001041788       -0.0001648517
Ti         0.0013201767        0.0013225242       -0.0000059193
Ti         0.0005803356        0.0005626690       -0.0000119675
Ti         0.0013317111        0.0006192245       -0.0005457774
Ti         0.0005722704        0.0013152244        0.0005389022
O         0.0002749996        0.0004985786       -0.0007692087
O        -0.0010818861       -0.0004662763       -0.0005550844
O         0.0004882698       -0.0011317486       -0.0004457978
O        -0.0005013622        0.0002480145       -0.0008800686
O        -0.0011527617        0.0004534394        0.0004567553
O         0.0002659943       -0.0004823423        0.0008885072
O        -0.0004743473       -0.0010607122        0.0005666586
O         0.0004955760        0.0002697273        0.0007931780
O         0.0003048050        0.0005756146       -0.0016277213
O        -0.0011549858       -0.0004362892       -0.0004195887
O         0.0004796124       -0.0010894417       -0.0005126308
O         0.0000526415        0.0002575383       -0.0010266606
O        -0.0009780736        0.0005470398        0.0012756638
O         0.0003077343       -0.0004752833        0.0007709445
O         0.0000367160       -0.0009724372        0.0006603492
O         0.0005150982        0.0002711793        0.0008396434
O         0.0005801181        0.0002750980        0.0016417343
O        -0.0004455333       -0.0011455459        0.0004462828
O        -0.0004696615        0.0002845428       -0.0007758814
O         0.0005602885       -0.0009608638       -0.0012947495
O        -0.0009449088        0.0000568959       -0.0006610246
O         0.0003085294        0.0004938219       -0.0008359478
O         0.0003134123        0.0000440740        0.0010257437
O        -0.0010770506        0.0004998087        0.0005257227
O         0.0003078020       -0.0000546882       -0.0010367942
O        -0.0009825345       -0.0005581434       -0.0012777947
O        -0.0000492991       -0.0009610715       -0.0006963253
O        -0.0005830033        0.0002607608       -0.0016436287
O        -0.0009628605       -0.0000576364        0.0006985363
O         0.0003190952       -0.0005749578        0.0016320395
O        -0.0005624763       -0.0009881573        0.0012983502
O        -0.0000601054        0.0002532780        0.0010679855
O         0.0011050254        0.0004446247       -0.0004284575
O        -0.0003617539       -0.0004745682       -0.0008834835
O         0.0004467872       -0.0003861410       -0.0001194242
O        -0.0004758205        0.0011222148       -0.0005590260
O        -0.0003693507        0.0005016801        0.0007872817
O         0.0011223483       -0.0004567728        0.0005471933
O        -0.0004453700       -0.0003618054        0.0002636434
O         0.0004956466        0.0011629046        0.0004563203
O         0.0011238429       -0.0004638439        0.0005778264
O        -0.0003666338        0.0004103490        0.0001070642
O        -0.0003619283       -0.0004092208       -0.0002705723
O         0.0011592612        0.0004634634       -0.0004507894
O        -0.0004496816        0.0010986103       -0.0005535098
O         0.0005023238       -0.0003410878       -0.0007849764
O         0.0004430366        0.0010827528        0.0004267487
O        -0.0004894245       -0.0003679046        0.0008922270
O         0.0011515152        0.0005547337       -0.0012631306
O        -0.0003727925       -0.0004740004       -0.0007606472
O         0.0004306488       -0.0003829952       -0.0002023870
O         0.0000432274        0.0010013399       -0.0006550852
O        -0.0003532589        0.0005721836        0.0016492617
O         0.0010941329       -0.0004240119        0.0004091387
O         0.0000652399       -0.0004427692        0.0003945092
O         0.0004896385        0.0011006406        0.0005139726
O         0.0011582793       -0.0004321171        0.0004351049
O        -0.0004036830        0.0005461965        0.0009831027
O         0.0005483705        0.0010142287        0.0013100884
O        -0.0004122085       -0.0003668115        0.0001077482
O        -0.0003776458       -0.0003909543       -0.0000991737
O         0.0010091075        0.0005392318       -0.0012894717
O        -0.0004704396        0.0011578425       -0.0004473463
O         0.0005446998       -0.0003833716       -0.0009866214
O        -0.0003946318        0.0000553020       -0.0004039614
O         0.0011068920        0.0004969835       -0.0005416351
O        -0.0004266344        0.0010533865       -0.0004186788
O         0.0005826568       -0.0003501548       -0.0016415576
O         0.0009654148        0.0000601694        0.0006661625
O        -0.0003604254        0.0004200596        0.0002218047
O         0.0005360755        0.0011542073        0.0012687835
O        -0.0004742317       -0.0003389111        0.0007836864
O        -0.0003671367        0.0004947790        0.0008506296
O         0.0011405718        0.0000596341        0.0006751441
O         0.0000547062       -0.0002853822        0.0010314618
O         0.0004679322        0.0010791209        0.0005093184
O         0.0010619484        0.0004845229       -0.0005105270
O        -0.0003423916        0.0000515067       -0.0010173692
O         0.0004878071       -0.0003212663       -0.0008243493
O         0.0000540564        0.0011309519       -0.0006659363
O         0.0011477103       -0.0000725630       -0.0006865025
O        -0.0003820733       -0.0005762552       -0.0016302501
O        -0.0000637087       -0.0004350207       -0.0004325687
O        -0.0005654554        0.0009878222       -0.0012923688
O        -0.0003660718       -0.0000548453        0.0010580028
O         0.0011460199       -0.0005662739        0.0012714099
O        -0.0005472090       -0.0003609541        0.0009917213
O        -0.0000451356        0.0009867603        0.0006998739
O         0.0009794626       -0.0005705325        0.0012975615
O        -0.0003981194       -0.0000547472        0.0004135317
O        -0.0003903612       -0.0005463433       -0.0009889672
O         0.0009469123       -0.0000547635       -0.0007068841
O        -0.0005512035        0.0011415428       -0.0012511918
O        -0.0000572060       -0.0002652799       -0.0010625709
O        -0.0000655324        0.0011408312        0.0006713241
O        -0.0005852259       -0.0003002927        0.0016417478
O         0.0002139444        0.0004230980       -0.0001251573
O        -0.0009933850       -0.0004415846       -0.0005629206
O         0.0004454889       -0.0009769340       -0.0004352728
O        -0.0004406471        0.0002270092       -0.0002726105
O        -0.0009846284        0.0004160227        0.0004432304
O         0.0002018837       -0.0004175230        0.0002662494
O        -0.0004557745       -0.0010262921        0.0005698402
O         0.0004492031        0.0001852645        0.0001178103
O         0.0001905950        0.0005496191       -0.0009875607
O        -0.0009781196       -0.0003867396       -0.0004250483
O         0.0004543436       -0.0010181138       -0.0005275190
O         0.0000548608        0.0002484265       -0.0004009681
O        -0.0010605078        0.0005379426        0.0012585691
O         0.0001955458       -0.0003795464        0.0000965294
O         0.0000536637       -0.0010885493        0.0006581263
O         0.0004389796        0.0001947684        0.0002151580
O         0.0005417900        0.0001593969        0.0010003432
O        -0.0004136203       -0.0009962924        0.0004401229
O        -0.0004118242        0.0001917665       -0.0001152978
O         0.0005267626       -0.0010575466       -0.0012797027
O        -0.0010405718        0.0000702732       -0.0006684763
O         0.0001931721        0.0004242170       -0.0002260892
O         0.0002417120        0.0000505000        0.0003988435
O        -0.0009576743        0.0004721640        0.0005174961
O         0.0002060732       -0.0000516222       -0.0004322426
O        -0.0010108048       -0.0005778263       -0.0012811111
O        -0.0000625703       -0.0010818582       -0.0006872530
O        -0.0005482103        0.0001899004       -0.0010024812
O        -0.0010233338       -0.0000453646        0.0007145396
O         0.0002164495       -0.0005721694        0.0009824105
O        -0.0005256813       -0.0011185622        0.0012796315
O        -0.0000666566        0.0001966950        0.0004386794
     192
 i =        3, E =     -5765.3507088746
Ti         0.0001303623        0.0001275837       -0.0000071462
Ti         0.0001029547        0.0001037342        0.0000028541
Ti         0.0001221779        0.0000944922        0.0002988144
Ti         0.0000787036        0.0001252368       -0.0003186967
Ti         0.0001265105        0.0008189972        0.0001611145
Ti         0.0000875483       -0.0001000530        0.0002850585
Ti        -0.0000659354        0.0001019527       -0.0000175039
Ti        -0.0001805800        0.0001258764        0.0003767187
Ti         0.0001047879        0.0008508755       -0.0004677943
Ti         0.0001381711       -0.0000973093        0.0000119062
Ti        -0.0001901316        0.0001294229       -0.0006528724
Ti        -0.0000564231        0.0001238445        0.0003211779
Ti         0.0008389583        0.0001140895       -0.0001508299
Ti        -0.0001083436        0.0000880847       -0.0002883773
Ti        -0.0001109496        0.0001322644       -0.0000188880
Ti         0.0008486264        0.0001175686        0.0004738713
Ti         0.0001209864       -0.0001888769        0.0006709022
Ti         0.0001300128       -0.0000354110       -0.0003269268
Ti         0.0001336901       -0.0001855526       -0.0003630233
Ti         0.0000882513       -0.0000625385        0.0000045460
Ti         0.0001269885        0.0000654872        0.0003442602
Ti         0.0001097780       -0.0008181307        0.0004457390
Ti         0.0000795186        0.0001297417        0.0006362488
Ti        -0.0008011561        0.0001168119        0.0001380241
Ti         0.0001109671        0.0000606201       -0.0006339085
Ti         0.0001358672       -0.0008156785       -0.0001359625
Ti        -0.0008161465        0.0001164578       -0.0004475215
Ti         0.0000724197        0.0001134908       -0.0003379809
Ti         0.0008476856        0.0008477148        0.0000132042
Ti        -0.0001147469       -0.0001045823        0.0000003548
Ti        -0.0000851309       -0.0001889887       -0.0006823217
Ti        -0.0001891171       -0.0000770348        0.0006720006
Ti        -0.0001044748        0.0008280694       -0.0001801909
Ti         0.0008242976       -0.0000828533        0.0001810286
Ti        -0.0002438564       -0.0002594004        0.0000022894
Ti        -0.0000582080       -0.0000472651        0.0000115895
Ti        -0.0000449881       -0.0000892504       -0.0003017734
Ti        -0.0002102759        0.0008489163        0.0001945202
Ti         0.0008429927       -0.0000691093       -0.0004831771
Ti        -0.0001008249       -0.0001880937        0.0003903423
Ti        -0.0001826982       -0.0000917799       -0.0003837517
Ti        -0.0000778948        0.0008448452        0.0004780341
Ti        -0.0000953939       -0.0000389178        0.0003007560
Ti         0.0008561870       -0.0002366488       -0.0001888137
Ti         0.0008587468        0.0001083001        0.0001607818
Ti        -0.0001089974       -0.0007981245        0.0001527611
Ti         0.0001150637       -0.0002626689       -0.0000195258
Ti        -0.0008127148       -0.0000644935        0.0004509949
Ti        -0.0001004811        0.0000566599       -0.0003560500
Ti         0.0008487998       -0.0008310401        0.0000113490
Ti        -0.0008232270       -0.0002361942        0.0002247738
Ti         0.0000690181       -0.0000760079       -0.0006351033
Ti        -0.0000699622       -0.0008262678       -0.0004481143
Ti        -0.0002335272        0.0001111500        0.0000442436
Ti        -0.0002015482       -0.0008124779       -0.0002132274
Ti        -0.0000888919        0.0000465972        0.0006455356
Ti        -0.0008150319        0.0008550036       -0.0000160196
Ti         0.0000670970       -0.0000779407        0.0003646981
Ti         0.0001068015        0.0008498310       -0.0001483851
Ti        -0.0007993264       -0.0000863033       -0.0001513223
Ti         0.0001201233        0.0001185755       -0.0000038597
Ti        -0.0008191598       -0.0008151268        0.0000088650
Ti         0.0000774963       -0.0008263401        0.0001964527
Ti        -0.0008235258        0.0000806499       -0.0001714490
O        -0.0001468771       -0.0007702483       -0.0003071794
O         0.0001722504        0.0001422777       -0.0000035632
O        -0.0007690871        0.0001683142       -0.0003152115
O         0.0001490076       -0.0001444393        0.0000267711
O         0.0001646261       -0.0007862871        0.0003277335
O        -0.0001608633        0.0001248276       -0.0000163686
O         0.0001313410        0.0001472714        0.0000137596
O        -0.0007847756       -0.0001493010        0.0003306642
O        -0.0001636699        0.0001934347       -0.0008254166
O         0.0001742577        0.0007735609       -0.0003115727
O        -0.0001329437        0.0001491738       -0.0000007654
O         0.0001703937       -0.0001410276       -0.0004310534
O         0.0001339020        0.0001830180        0.0008591749
O        -0.0001608775        0.0007659359        0.0003481352
O         0.0001754044        0.0001569517        0.0004480933
O        -0.0001189926       -0.0001508495       -0.0000223593
O         0.0001710705       -0.0001657649        0.0008351176
O         0.0007807668        0.0001763002        0.0003358538
O         0.0007787218       -0.0001552873       -0.0003281512
O         0.0001812281        0.0001460065       -0.0008618740
O         0.0001854923        0.0001736869       -0.0004523450
O        -0.0001779732       -0.0001451389        0.0000377244