     192
 i =        1, E =     -5765.3452536761
Ti        -0.0005797910       -0.0005951951        0.0000417455
Ti         1.8923453278        1.8922990457        4.8075543645
Ti        -0.0006305646        1.8923224992        2.4026705025
Ti         1.8923291152       -0.0005212865        7.2123605805
Ti        -0.0005600865        3.7810404759        0.0015412103
Ti         1.8923572486       13.2393611674        4.8064467637
Ti        11.3465520748        1.8923014056        2.4037307164
Ti         5.6738060415       -0.0005208874        7.2130055123
Ti         1.8922540006        3.7811653646        7.2108667130
Ti        -0.0006229853       13.2394269935        2.4037893288
Ti         5.6738115932        1.8922610930        4.8068477563
Ti        11.3464993111       -0.0005717001       -0.0010404292
Ti         3.7810901745       -0.0005844412       -0.0014814091
Ti        13.2393951293        1.8923007188        4.8086549512
Ti        13.2394351183       -0.0006490111        7.2112246625
Ti         3.7810975085        1.8922975475        2.4041020047
Ti         1.8923555648        5.6738000838        4.8081729108
Ti        -0.0006917532       11.3465734409        0.0010131854
Ti        -0.0006205547        5.6739038136        2.4020338748
Ti         1.8922948906       11.3464624832        7.2113475902
Ti        -0.0006528208        7.5650891510        0.0017096345
Ti         1.8923453027        9.4578751397        4.8078894738
Ti         7.5651604039        1.8923240800        2.4043834975
Ti         9.4578299903       -0.0005076095        7.2126941932
Ti         1.8922920146        7.5650395375        7.2105761959
Ti        -0.0005394251        9.4577437385        2.4022901904
Ti         9.4577729777        1.8923297343        4.8072066250
Ti         7.5651052735       -0.0005739270       -0.0017287296
Ti         3.7811539430        3.7811724325        0.0000241171
Ti        13.2393745245       13.2393809987        4.8075570749
Ti        11.3465959960        5.6738429116        2.4030866731
Ti         5.6738100805       11.3465593547        7.2119959853
Ti        13.2394097060        3.7811050990        7.2097562371
Ti         3.7810299799       13.2394606992        2.4052203252
Ti         5.6737561327        5.6738730647        4.8074761926
Ti        11.3465358643       11.3465558117       -0.0000757814
Ti        11.3465701576       13.2393998900        2.4048179805
Ti         5.6738880090        3.7811159915        7.2115330048
Ti         3.7811703509       11.3464669473       -0.0004288659
Ti        13.2393658758        5.6738697679        4.8093078470
Ti         5.6738282271       13.2393191892        4.8057511208
Ti        11.3464546761        3.7811729151        0.0004318900
Ti        13.2394817269       11.3465451446        7.2101986680
Ti         3.7811292941        5.6737456355        2.4034982579
Ti         3.7811291828        7.5651934640        0.0003162809
Ti        13.2394114947        9.4578298841        4.8090518562
Ti         7.5651129660        5.6738494653        2.4037414037
Ti         9.4577498573       11.3465050302        7.2116753044
Ti        13.2393940438        7.5650859121        7.2095156186
Ti         3.7811618501        9.4577849435        2.4038174293
Ti         9.4577683564        5.6737328954        4.8078468591
Ti         7.5651609673       11.3465697938       -0.0006944901
Ti        11.3465624427        9.4578185261        2.4033625260
Ti         5.6738230732        7.5650665244        7.2112763244
Ti         5.6739243429        9.4578040018        4.8071297135
Ti        11.3465994141        7.5650028385        0.0006567283
Ti         9.4577394993        3.7811691071        7.2112064601
Ti         7.5651353516       13.2392862402        2.4054590875
Ti         7.5651606696        3.7811384112       -0.0002906923
Ti         9.4578205650       13.2392889549        4.8060913627
Ti         7.5651587744        7.5651174638       -0.0000038437
Ti         9.4575934317        9.4579218505        4.8075145466
Ti         7.5650138972        9.4578314241        2.4040305874
Ti         9.4577631212        7.5650213192        7.2109441903
O         0.0012328991        0.0022385880        1.9849820453
O         1.8824639664        1.8898862504        6.7904656834
O         0.0022144354        1.8822271770        4.3877539430
O         1.8897681794        0.0012238918        9.1950384494
O         1.8821071581        0.0021778970        5.2272630128
O         0.0011303041        1.8897009651        0.4199598702
O         1.8897408757        1.8823595052        2.8246159239
O         0.0022619954        0.0011752262        7.6300790626
O         0.0013064112        3.7816259072        1.9848841158
O         1.8822077798       13.2365598424        6.7915761174
O        11.3490347538        1.8823160690        4.3866818245
O         5.6727662291        0.0012407385        9.1962823279
O         1.8824346656        3.7815821071        5.2272934206
O         0.0012957496       13.2365781627        0.4188508839
O         5.6728261064        1.8826106091        2.8232559370
O        11.3490923515        0.0011694109        7.6311771406
O         3.7815638663        0.0011003990        7.6302364392
O        13.2365438407        1.8822240167        2.8235799331
O        13.2365190206        0.0012123553        9.1961902347
O         3.7816175895        1.8826533694        4.3876911900
O         1.8828439167        5.6727705172        6.7917178148
O         0.0011668862       11.3490619431        1.9838331961
O         0.0012610029        5.6727357151        0.4187295232
O         1.8823549771       11.3490595665        5.2284364408
O         0.0012525690        7.5662035252        1.9849163033
O         1.8826075812        9.4572079111        6.7914904169
O         7.5661688110        1.8827019714        4.3879767988
O         9.4573085217        0.0012427907        9.1960350411
O         1.8826073526        7.5662299076        5.2269233989
O         0.0013837445        9.4573311103        0.4189735779
O         9.4573332462        1.8825543252        2.8236051451
O         7.5662149499        0.0011240434        7.6299340054
O         3.7726159283        0.0022431441        1.9836507089
O        13.2370641343        1.8897212353        6.7913849167
O         0.0022144381        5.6694983536        4.3873381108
O         1.8897491286       11.3562880420        9.1943392291
O        13.2371744990        0.0021789390        5.2262597924
O         3.7725079368        1.8898770078        0.4209458151
O         1.8898515120        5.6694151004        2.8249170897
O         0.0022448340       11.3564110297        7.6310522524
O        11.3563733682        1.8898401616        0.4207288389
O         5.6694781069        0.0021339396        5.2277200507
O         5.6694048679        1.8898903623        6.7900891092
O        11.3563568549        0.0021937364        1.9840538114
O         1.8898705990        3.7725829604        9.1939848350
O         0.0022333063       13.2372105396        4.3887738497
O         0.0021805574        3.7724262182        7.6313853117
O         1.8896825006       13.2370041175        2.8236956049
O         3.7726262077        3.7815657992        1.9839050695
O        13.2369968667       13.2365507619        6.7924025123
O        11.3489701192        5.6695583128        4.3862663624
O         5.6728480510       11.3559557498        9.1955179810
O        13.2372079618        3.7815992282        5.2263950555
O         3.7723719588       13.2365061807        0.4199937373
O         5.6727885107        5.6695293533        2.8233490337
O        11.3490728244       11.3563063131        7.6320162624
O        11.3564091533       13.2365779046        0.4197541505
O         5.6695702079        3.7816306817        5.2274623635
O         3.7815858877       11.3560115809        7.6310256268
O        13.2365830068        5.6693888837        2.8241021866
O         5.6694858792       13.2366331370        6.7911119528
O        11.3559237336        3.7816155773        1.9840327250
O        13.2365062720       11.3562973669        9.1952306245
O         3.7816273874        5.6694660248        4.3874777577
O         5.6693467823        5.6727600198        6.7916717160
O        11.3561863318       11.3490382175        1.9829230086
O        13.2365395576        3.7724480306        9.1950435650
O         3.7815887755       13.2372813263        4.3885332413
O        11.3559394867        5.6727495639        0.4196047326
O         5.6693387947       11.3489835895        5.2288475249
O         3.7816465848        3.7725416301        7.6310637219
O        13.2365602816       13.2370491773        2.8226292334
O        13.2371628059       11.3490948927        5.2274778686
O         3.7726149609        5.6728674445        0.4194896110
O         5.6727346269       13.2371526702        2.8224219045
O        11.3489804567        3.7724611374        7.6322983946
O         3.7725525853       11.3490246570        1.9827177828
O        13.2370740316        5.6727608846        6.7924958435
O        11.3490836478       13.2372922884        4.3875341509
O         5.6728499957        3.7726097748        9.1955279291
O         3.7725670358        7.5661435191        1.9842717521
O        13.2370726850        9.4573101886        6.7923245660
O         7.5661326670        5.6695056400        4.3879272329
O         9.4573340016       11.3559140105        9.1951976733
O        13.2371293565        7.5662511848        5.2262628904
O         3.7725799461        9.4572748771        0.4199697786
O         9.4572968371        5.6693979503        2.8238057715
O         7.5661392593       11.3559358188        7.6308552384
O        11.3560054904        9.4572571551        0.4196534166
O         5.6693913663        7.5662095533        5.2272109572
O         5.6695058135        9.4572350513        6.7912297338
O        11.3558297426        7.5662242531        1.9842941747
O         9.4572456895        3.7725899121        9.1949873267
O         7.5662077523       13.2373007137        4.3887737971
O         7.5661808427        3.7726024667        7.6308977867
O         9.4573732199       13.2371905972        2.8227660128
O         7.5698251661        0.0021440299        1.9836801265
O         9.4664709461        1.8899302884        6.7902691640
O         0.0022337436        9.4663338516        4.3874493798
O         1.8898237547        7.5697914657        9.1938978180
O         9.4665126486        0.0021557745        5.2274303390
O         7.5698489175        1.8898621717        0.4211845791
O         1.8898835374        9.4665721047        2.8247529596
O         0.0021943049        7.5699820439        7.6314977771
O         7.5698872499        3.7816631072        1.9837688744
O         9.4665558327       13.2365775212        6.7913218403
O        11.3488903420        9.4663056715        4.3866299571
O         5.6728336879        7.5698161173        9.1954539742
O         9.4663074689        3.7816057299        5.2274688580
O         7.5698704188       13.2365706220        0.4201990778
O         5.6727802387        9.4662608028        2.8233240724
O        11.3489606316        7.5699795493        7.6324037093
O         3.7816372944        7.5700218912        7.6312335586
O        13.2366169606        9.4665816340        2.8238133378
O        13.2365569873        7.5699466337        9.1947166672
O         3.7817330560        9.4662577797        4.3877061436
O         9.4663485604        5.6727668192        6.7916710597
O         7.5699220447       11.3489706416        1.9824159874
O         7.5698325162        5.6728132763        0.4196161096
O         9.4665173043       11.3490198017        5.2287466542
O         7.5699978225        7.5661999626        1.9841693943
O         9.4663738988        9.4572109299        6.7914416119
O         7.5661198077        9.4660528068        4.3877880120
O         9.4573131398        7.5699733709        9.1950783427
O         9.4665486678        7.5661945789        5.2268667182
O         7.5698430565        9.4572891923        0.4200435526
O         9.4572120155        9.4664025385        2.8235585642
O         7.5661704781        7.5700159910        7.6308423453
     192
 i =        2, E =     -5765.3496243776
Ti         0.0011959128        0.0011801564        0.0000495720
Ti         1.8873187235        1.8873447645        4.8075054428
Ti         0.0011383118        1.8872013363        2.4015283383
Ti         1.8872157910        0.0011437707        7.2136944915
Ti         0.0011436012        3.7762575580        0.0037844449
Ti         1.8872418088       13.2373101295        4.8052331647
Ti        11.3513930001        1.8872996788        2.4037483598
Ti         5.6715063772        0.0010104763        7.2169023003
Ti         1.8873503353        3.7762849406        7.2098605470
Ti         0.0011932586       13.2373344150        2.4038801079
Ti         5.6715103706        1.8873143354        4.8041670704
Ti        11.3514368743        0.0011125877       -0.0022791116
Ti         3.7762910187        0.0011297124       -0.0037949088
Ti        13.2373189362        1.8872327265        4.8099042095
Ti        13.2372974023        0.0011214870        7.2112366740
Ti         3.7763122989        1.8873802076        2.4050812845
Ti         1.8873444910        5.6714873726        4.8107271457
Ti         0.0011289639       11.3514633109        0.0022607880
Ti         0.0010319905        5.6715296169        2.3981656580
Ti         1.8872609218       11.3513476198        7.2114992434
Ti         0.0010421070        7.5676915345        0.0055268221
Ti         1.8873684649        9.4626919449        4.8088266176
Ti         7.5676994523        1.8873379049        2.4070130026
Ti         9.4626918889        0.0010943784        7.2148895753
Ti         1.8873196253        7.5676718954        7.2080122925
Ti         0.0011280490        9.4626369610        2.4001626886
Ti         9.4626664906        1.8874411949        4.8062350733
Ti         7.5676883613        0.0010257853       -0.0056159983
Ti         3.7763267567        3.7763066511       -0.0000226654
Ti        13.2372721023       13.2373299948        4.8075694620
Ti        11.3513824160        5.6715208280        2.4004670769
Ti         5.6714973739       11.3513780843        7.2147083172
Ti        13.2374007856        3.7762686785        7.2075473428
Ti         3.7762501928       13.2374036187        2.4074453454
Ti         5.6714197173        5.6714867046        4.8074625776
Ti        11.3514118574       11.3513870984       -0.0001202193
Ti        11.3514433688       13.2373680314        2.4060327632
Ti         5.6715687641        3.7761453887        7.2129552616
Ti         3.7763209461       11.3512849671       -0.0014007944
Ti        13.2374172524        5.6715004403        4.8132254808
Ti         5.6714749176       13.2374801528        4.8018419963
Ti        11.3512469131        3.7763001464        0.0015239792
Ti        13.2373540483       11.3514540482        7.2089817545
Ti         3.7761883654        5.6714942049        2.4020151027
Ti         3.7762036161        7.5677211609        0.0017995775
Ti        13.2374064088        9.4626696110        4.8112228906
Ti         7.5676907325        5.6714835350        2.4037174373
Ti         9.4626672660       11.3512696515        7.2126788636
Ti        13.2374152750        7.5677330920        7.2056338565
Ti         3.7763323510        9.4626310580        2.4039301852
Ti         9.4627770912        5.6714523203        4.8093493030
Ti         7.5676928576       11.3513964843       -0.0033639985
Ti        11.3512639398        9.4626626553        2.4023559295
Ti         5.6714785884        7.5677216508        7.2113150221
Ti         5.6715676444        9.4627252300        4.8056317750
Ti        11.3513651130        7.5676812487        0.0032909350
Ti         9.4626132056        3.7762875701        7.2111020073
Ti         7.5677052212       13.2374454038        2.4093317148
Ti         7.5676942236        3.7761932946       -0.0017274834
Ti         9.4627124749       13.2373462809        4.8039472230
Ti         7.5677561927        7.5677431142       -0.0000115718
Ti         9.4625761676        9.4626683990        4.8074923735
Ti         7.5676253671        9.4627602215        2.4054879974
Ti         9.4627995311        7.5676954877        7.2093821173
O         0.0003141581        0.0000473964        1.9740609812
O         1.8874805109        1.8883886965        6.7774659352
O         0.0000638205        1.8876486703        4.3767104717
O         1.8883905760        0.0004201961        9.1824282146
O         1.8877338540        0.0001206858        5.2384564468
O         0.0003612114        1.8883524794        0.4327251534
O         1.8883968348        1.8874249803        2.8375182792
O         0.0000398274        0.0003337068        7.6409816275
O         0.0002202452        3.7766102201        1.9758098889
O         1.8877352675       13.2383784948        6.7804298023
O        11.3502866239        1.8875348501        4.3736987191
O         5.6711114734        0.0003177524        9.1885067498
O         1.8870676088        3.7767166046        5.2366207690
O         0.0002202459       13.2384698621        0.4298527331
O         5.6711478000        1.8869843301        2.8312298484
O        11.3502623036        0.0003284866        7.6438892588
O         3.7766132935        0.0003098344        7.6392239007
O        13.2383933133        1.8876864582        2.8347241104
O        13.2384404237        0.0002881120        9.1852564665
O         3.7767011064        1.8870189081        4.3783597162
O         1.8868745287        5.6711093016        6.7836719642
O         0.0002206923       11.3503025788        1.9711238812
O         0.0001176481        5.6710918952        0.4265109807
O         1.8874723450       11.3502482569        5.2415497815
O         0.0001596277        7.5680578396        1.9770889955
O         1.8870465670        9.4622212083        6.7820609099
O         7.5680695773        1.8869340255        4.3799615853
O         9.4623038665        0.0003503510        9.1868944303
O         1.8869759974        7.5680632292        5.2350210194
O         0.0001635455        9.4622980677        0.4281861784
O         9.4622544301        1.8871171161        2.8329799818
O         7.5681083592        0.0003492786        7.6377430643
O         3.7648742129        0.0001616516        1.9722911049
O        13.2383698555        1.8883444105        6.7786632607
O         0.0001316721        5.6601648308        4.3749811004
O         1.8883747107       11.3508959167        9.1814526545
O        13.2383775042        0.0000454606        5.2372266108
O         3.7648279034        1.8884192393        0.4340149542
O         1.8883041670        5.6597996244        2.8389484054
O         0.0000510227       11.3508057290        7.6422266490
O        11.3508926861        1.8883634639        0.4337171793
O         5.6599844817        0.0001716099        5.2401328207
O         5.6598148091        1.8882359949        6.7759928454
O        11.3508068717        0.0001111726        1.9728743009
O         1.8884133796        3.7649240805        9.1809118207
O         0.0000502238       13.2383052086        4.3779167762
O         0.0001411087        3.7649116849        7.6426692700
O         1.8883756374       13.2383893888        2.8364178090
O         3.7647524009        3.7767453486        1.9744528248
O        13.2384134562       13.2384507860        6.7814449313
O        11.3504078325        5.6600939083        4.3721484699
O         5.6711117649       11.3514946745        9.1875550127
O        13.2383517218        3.7766235243        5.2355413620
O         3.7648680279       13.2383571767        0.4312951619
O         5.6710414587        5.6598027810        2.8319682089
O        11.3503061172       11.3509816856        7.6450561351
O        11.3508097809       13.2383853037        0.4309105583
O         5.6600049876        3.7766705973        5.2375462243
O         3.7766738024       11.3513436565        7.6404182125
O        13.2383794307        5.6598685532        2.8364976612
O         5.6600422978       13.2383550101        6.7786968919
O        11.3513845576        3.7767031789        1.9747562426
O        13.2384445038       11.3508441285        9.1840827691
O         3.7766710073        5.6597102879        4.3773630246
O         5.6594099497        5.6710555359        6.7830897914
O        11.3509922983       11.3502592704        1.9699087801
O        13.2383476841        3.7650070441        9.1837850420
O         3.7765871134       13.2383563041        4.3794495842
O        11.3515945868        5.6711105484        0.4275928491
O         5.6597569589       11.3504367087        5.2429878403
O         3.7768074911        3.7647053000        7.6404431427
O        13.2384512718       13.2383286224        2.8335636211
O        13.2384032169       11.3502999596        5.2402333530
O         3.7646853411        5.6711409701        0.4275779298
O         5.6710632261       13.2381916600        2.8302088275
O        11.3502655152        3.7649719072        7.6454795211
O         3.7650295873       11.3502422409        1.9696208948
O        13.2383727437        5.6710979527        6.7847497985
O        11.3503015850       13.2382129999        4.3747778557
O         5.6711755476        3.7646978332        9.1874061276
O         3.7646536267        7.5680420745        1.9761179962
O        13.2384555946        9.4623331349        6.7830793597
O         7.5680553691        5.6598073329        4.3792712625
O         9.4622765307       11.3514477272        9.1858000147
O        13.2384372480        7.5681014012        5.2340956647
O         3.7647572404        9.4621718289        0.4295050026
O         9.4622395306        5.6595212680        2.8340044460
O         7.5680395973       11.3515432267        7.6388789111
O        11.3514876710        9.4622549006        0.4290858895
O         5.6594774937        7.5680506770        5.2359233539
O         5.6599486525        9.4622623736        6.7810672606
O        11.3516543202        7.5680806383        1.9762369140
O         9.4621464740        3.7647832135        9.1854792795
O         7.5680796799       13.2380941245        4.3809760028
O         7.5680285831        3.7646728493        7.6390675133
O         9.4623257728       13.2381784951        2.8319827521
O         7.5799784336        0.0001424586        1.9712731979
O         9.4733642764        1.8883797689        6.7771594277
O         0.0001647500        9.4733333916        4.3762186405
O         1.8883083688        7.5798575923        9.1798519906
O         9.4733808814        0.0001874052        5.2387506909
O         7.5801157162        1.8882512369        0.4352862364
O         1.8884330904        9.4734974266        2.8378358557
O         0.0001156865        7.5802136207        7.6437950697
O         7.5803439682        3.7766963690        1.9737084959
O         9.4733647542       13.2383098004        6.7800502852
O        11.3502475605        9.4734615780        4.3734449084
O         5.6711216483        7.5802540940        9.1868762566
O         9.4735961733        3.7767908054        5.2368473733
O         7.5800902106       13.2383532648        0.4326072374
O         5.6711537292        9.4737638074        2.8314481317
O        11.3503673868        7.5801731845        7.6465558739
O         3.7766884999        7.5806709439        7.6413483579
O        13.2383237048        9.4734199094        2.8350675833
O        13.2383449188        7.5800717583        9.1823500413
O         3.7768285906        9.4735772194        4.3783404318
O         9.4736035751        5.6711380256        6.7835793173
O         7.5801581314       11.3504292451        1.9683098747
O         7.5803679236        5.6711173264        0.4282272209
O         9.4732401608       11.3502459064        5.2418744156
O         7.5806501254        7.5680597673        1.9754727340
O         9.4734217500        9.4621771431        6.7818751227
O         7.5679936100        9.4737503840        4.3796450944
O         9.4622623267        7.5803105662        9.1848148128
O         9.4735438525        7.5679995020        5.2350354898
O         7.5801152124        9.4622835001        0.4302258536
O         9.4620910433        9.4738230713        2.8330796297
O         7.5681409714        7.5806209230        7.6394846945
     192
 i =        3, E =     -5765.3507088746
Ti         0.0001651970        0.0002055150        0.0000920915
Ti         1.8874824225        1.8874222708        4.8075147104
Ti         0.0002016900        1.8874501174        2.4040961725
Ti         1.8874695772        0.0002045668        7.2111167123
Ti         0.0002166801        3.7729036987        0.0030063711
Ti         1.8875125604       13.2382429953        4.8078565549
Ti        11.3511940767        1.8874119802        2.4037769685
Ti         5.6687825235        0.0001650178        7.2164490622
Ti         1.8873629788        3.7728410732        7.2080695171
Ti         0.0002010493       13.2382796838        2.4038890229
Ti         5.6687462377        1.8871876197        4.8019202362
Ti        11.3511392718        0.0002167433        0.0002399976
Ti         3.7728877507        0.0002340035       -0.0030082067
Ti        13.2382731424        1.8874988171        4.8073576652
Ti        13.2383040733        0.0001958529        7.2112718528
Ti         3.7728444002        1.8873820748        2.4068527170
Ti         1.8872184965        5.6687243845        4.8129992574
Ti         0.0001769356       11.3511307991       -0.0001264104
Ti         0.0001258268        5.6687541347        2.3985500457
Ti         1.8874600930       11.3511920068        7.2114929590
Ti         0.0001822844        7.5706274694        0.0050990239
Ti         1.8873372671        9.4659955424        4.8106066792
Ti         7.5706537248        1.8872095780        2.4092153302
Ti         9.4659458816        0.0002126586        7.2140223617
Ti         1.8872755080        7.5706953321        7.2058231994
Ti         0.0001788182        9.4659471498        2.4010174246
Ti         9.4659862409        1.8873631211        4.8044868609
Ti         7.5706325141        0.0002216917       -0.0051262834
Ti         3.7728398290        3.7728316119       -0.0000880815
Ti        13.2382822778       13.2382955691        4.8075422507
Ti        11.3514115874        5.6687436566        2.3982455186
Ti         5.6687138747       11.3514161923        7.2169152455
Ti        13.2382825613        3.7728980090        7.2084454301
Ti         3.7728787701       13.2382626586        2.4066380070
Ti         5.6685762045        5.6686175205        4.8075171237
Ti        11.3512003604       11.3511871333       -0.0000688618
Ti        11.3511132598       13.2382436814        2.4035236285
Ti         5.6686744680        3.7726558414        7.2134579854
Ti         3.7728422278       11.3512226533       -0.0030997104
Ti        13.2383022857        5.6687467221        4.8128040795
Ti         5.6687301568       13.2382655975        4.8022973243
Ti        11.3512433538        3.7728582933        0.0032852659
Ti        13.2382997476       11.3511322563        7.2115084584
Ti         3.7726340969        5.6687146144        2.4014747206
Ti         3.7726634287        7.5706931152        0.0022139643
Ti        13.2382592277        9.4659398023        4.8102769985
Ti         7.5707956392        5.6686407371        2.4036617888
Ti         9.4659801780       11.3512281321        7.2143863499
Ti        13.2382961087        7.5706884349        7.2061132608
Ti         3.7728269351        9.4660149371        2.4040248583
Ti         9.4661504731        5.6687204558        4.8098826959
Ti         7.5706356616       11.3514272941       -0.0055099022
Ti        11.3512502938        9.4660107442        2.4006664219
Ti         5.6685862235        7.5708373806        7.2113855540
Ti         5.6686526185        9.4661505527        4.8051635761
Ti        11.3513807694        7.5707226251        0.0054600288
Ti         9.4660033782        3.7728355967        7.2110991241
Ti         7.5706300058       13.2382832615        2.4088875593
Ti         7.5706865759        3.7726918130       -0.0021562796
Ti         9.4659255373       13.2382183516        4.8048028226
Ti         7.5708226614        7.5707867381       -0.0000219029
Ti         9.4659920431        9.4659819718        4.8074486402
Ti         7.5707512931        9.4661697836        2.4059877337
Ti         9.4661695637        7.5707792657        7.2088770833
O         0.0015105938        0.0017340292        1.9680618750
O         1.8835371491        1.8860583885        6.7706948717
O         0.0017301132        1.8835915279        4.3732050242
O         1.8860174512        0.0015024417        9.1731652019
O         1.8836468148        0.0017228305        5.2420041944
O         0.0015753171        1.8860646033        0.4420113524
O         1.8860750833        1.8836407044        2.8443130174
O         0.0017543246        0.0015374905        7.6470865748
O         0.0015215941        3.7752475433        1.9665834253
O         1.8835837787       13.2367477496        6.7770120112
O        11.3525500300        1.8836424662        4.3670827521
O         5.6708964675        0.0014065452        9.1823881322
O         1.8835991252        3.7752637089        5.2432302814
O         0.0015465157       13.2367466023        0.4358830537
O         5.6708689965        1.8834202291        2.8346384418
O        11.3525306162        0.0015436874        7.6529828650
O         3.7752909259        0.0015734912        7.6484567370
O        13.2367441470        1.8835627414        2.8382368103
O        13.2367169424        0.0015455416        9.1792363380
O         3.7752908347        1.8835219110        4.3716878435
O         1.8833155789        5.6709000554        6.7802803771
O         0.0016181839       11.3525634594        1.9621020228