     192
 i =        1, E =     -5772.7038755818
Ti        -0.0626332528        0.0957394697        0.0646365923
Ti         1.8643914129        1.9217902805        4.8964183959
Ti         0.0455369510        2.0278958387        2.5272133496
Ti         1.8614420621       -0.0427465404        7.1756972983
Ti        -0.0286424071        3.8321235757       -0.0504462420
Ti         1.9470735747       13.1890374230        4.8325466387
Ti        11.2894540495        1.9799091260        2.4496140998
Ti         5.6055383403       -0.0886745174        7.2220050177
Ti         1.9024905957        3.8198361262        7.2334704651
Ti         0.0298935517       13.3426913682        2.4740504467
Ti         5.6769728954        1.8281821070        4.8266054542
Ti        11.3015092874        0.1131946035       -0.0417918575
Ti         3.6797185299        0.0939669693        0.0513202478
Ti        13.1223217689        1.7713317361        4.7072300329
Ti        13.2619670432       -0.0459619911        7.1536417155
Ti         3.7528277009        1.8049933841        2.5169910686
Ti         1.9695888838        5.6383519251        4.8527240011
Ti         0.0068817442       11.5784367377       -0.0004943544
Ti        -0.0180295076        5.7244766429        2.4871343900
Ti         1.9060557483       11.3217598207        7.3559324421
Ti         0.0807572269        7.4951787697        0.0507338830
Ti         2.0405462120        9.5176346828        4.9032560037
Ti         7.5006092185        1.9523039089        2.3549354918
Ti         9.4632224129       -0.1283579074        7.2278227681
Ti         1.9456897368        7.5749626484        7.1604191264
Ti         0.1331174355        9.5818016408        2.4861340076
Ti         9.3293557569        1.8080577597        4.7639819500
Ti         7.4663480632       -0.0621882248       -0.0773030003
Ti         3.7317565822        3.7819421921       -0.0047289933
Ti        13.2319879069       13.1291464916        4.7441531980
Ti        11.3780039186        5.7271557927        2.3767118827
Ti         5.6715459952       11.3285339176        7.1530644380
Ti        13.1720164488        3.6782345923        7.2433654996
Ti         3.7742179064       13.1648393356        2.4447210094
Ti         5.6746493065        5.7215998166        4.8455186360
Ti        11.2248867539       11.3878435636        0.1029565301
Ti        11.2867408557       13.3391180083        2.3548478871
Ti         5.6498396013        3.7264847825        7.1316073798
Ti         3.8838363387       11.4210975523        0.0424192597
Ti        13.2828602588        5.5841428714        4.8951039737
Ti         5.7932480807       13.2058746653        4.8085099319
Ti        11.2737110635        3.7911776352       -0.0771427026
Ti        13.0928553330       11.3822437282        7.2628730203
Ti         3.7954507698        5.6181733518        2.3906323192
Ti         3.8018638209        7.5541840138        0.0486534177
Ti        13.2977663822        9.4215702527        4.8374925119
Ti         7.5277498032        5.6740075972        2.3904577647
Ti         9.4226556807       11.1491166900        7.1771450297
Ti        13.3034837394        7.5414419627        7.2252450765
Ti         3.8892941367        9.4508212367        2.3371892949
Ti         9.5166484309        5.5572768634        4.7077245990
Ti         7.5316945924       11.3467141501        0.0641471055
Ti        11.4021970184        9.4528805458        2.4146871184
Ti         5.6572961395        7.6037793672        7.1970001237
Ti         5.7740519144        9.4255562597        4.7462405307
Ti        11.3084912558        7.5728739958        0.0104900763
Ti         9.4243921668        3.6459550135        7.1684762431
Ti         7.5403438555       13.3040407790        2.4104237449
Ti         7.4664661488        3.8005782566       -0.0668101794
Ti         9.5070050511       13.2436880368        4.7793316343
Ti         7.5941563631        7.5387664143       -0.0569462628
Ti         9.5226450319        9.3935743521        4.7599366395
Ti         7.6410128600        9.4221228196        2.3247746471
Ti         9.5133794215        7.3607169952        7.1428502915
O         0.0519405352        0.0797437953        2.0876141286
O         1.6817866706        1.9386550443        6.7332269950
O        -0.0723289685        1.9988155517        4.4068309013
O         1.8001849467        0.1439529283        9.2346273509
O         1.8140181694       -0.0194872214        5.2668204712
O        -0.1444964613        2.0070634341        0.4934206047
O         1.8651143620        2.1668002918        2.8383811188
O        -0.0749727148       -0.0484612690        7.6256995667
O        -0.0314747275        3.9100722501        2.0829507645
O         1.9914725347       13.2757379701        6.8176961860
O        11.2896927085        1.8299907488        4.3102500778
O         5.6358341143       -0.0183609164        9.2583465242
O         2.1034612601        3.7572089711        5.1828916101
O         0.0459426290       13.3753048212        0.4431250905
O         5.6330953544        1.8634620400        2.8415988007
O        11.2793712256        0.0639911898        7.5715884235
O         3.7100524107        0.1083884920        7.6974442536
O        13.1888879471        1.8773868910        2.8388402854
O        13.1738568248       -0.0964566149        9.2118148929
O         3.7092041718        1.6621333292        4.3694183667
O         1.9082781159        5.6210558694        6.7373359979
O         0.0542348616       11.4488626684        1.9100893819
O         0.0799860626        5.7179172874        0.4728347607
O         1.9095272531       11.3148604195        5.2415778312
O         0.1195279394        7.7278305213        1.9451003866
O         2.1444148726        9.4612825196        6.7756974860
O         7.4556950820        1.8697450103        4.3594597671
O         9.4176410196        0.0307886620        9.1960898408
O         1.8307249696        7.5681673961        5.2785332386
O         0.1050449953        9.5667352242        0.2703322147
O         9.3712028403        2.0355431261        2.8428279246
O         7.4793325108       -0.1576291021        7.7058933842
O         3.7474617457        0.0608094176        2.0348970793
O        13.2217055707        1.8476528506        6.7787448704
O         0.0012370553        5.6031123093        4.4836197768
O         1.9289010260       11.3591216332        9.2576155339
O        13.1776233470       -0.0278264248        5.1358464599
O         3.7063686680        1.9520571050        0.4372555404
O         1.9484522276        5.7920702673        2.9182009360
O         0.1054103233       11.4246417581        7.5768561627
O        11.3445628332        2.0064711505        0.2888574213
O         5.8141683570       -0.0918250647        5.2789764734
O         5.5749875251        1.8290359677        6.7787260475
O        11.2724397747        0.1402558206        1.8921573686
O         1.9104577102        3.8310000801        9.1974495635
O        -0.0248476344       13.1619959933        4.4524348772
O         0.0228379282        3.7930974643        7.6832612191
O         1.8886165326       13.2383364518        2.8709429829
O         3.9535753448        3.8430664794        2.0674261169
O        13.1126370035       13.2702151223        6.7291818275
O        11.3669946661        5.6608447194        4.3804426340
O         5.6891272905       11.4631391843        9.2225332721
O        13.1788138551        3.8048929017        5.2277141325
O         3.6443912366       13.3076014533        0.5137217081
O         5.7456777309        5.9003556460        2.7462896545
O        11.3020192400       11.3360711321        7.6560062839
O        11.2538116419       13.2666276457        0.4146364284
O         5.5110732546        3.7152702030        5.1875174736
O         3.7898687001       11.3714226771        7.6890952601
O        13.2813985016        5.9193494163        2.8716303575
O         5.5269771629       13.2019348785        6.7758903345
O        11.5287076649        3.8324941086        1.9168470011
O        13.2403284510       11.4132309365        9.2037567937
O         3.8621840862        5.7130479944        4.3988854485
O         5.7630516996        5.6321667629        6.7309455429
O        11.1312431329       11.4654473284        1.9922602624
O        13.2125381043        3.9021450190        9.1349999918
O         3.7935540041       13.2135343129        4.3849177843
O        11.3594638904        5.7381623842        0.4154667905
O         5.7963008473       11.3042914042        5.2414735920
O         3.7395210001        3.7250928329        7.6557406114
O        13.2138024134       13.2202391223        2.7230945640
O        13.0618578699       11.4137416076        5.1592287256
O         3.7145336609        5.6728650012        0.4322906153
O         5.6967504981       13.1739814199        2.8706073162
O        11.2934187946        3.5644254535        7.5612735827
O         3.9571008533       11.4107194642        1.9608405707
O        13.2158071846        5.6396821664        6.8882146919
O        11.2828474828       13.3379265644        4.3185255323
O         5.6669424968        3.8101496524        9.1383370270
O         3.7826774868        7.6448995387        1.9245606645
O        13.3068620375        9.5884790859        6.7480311645
O         7.5684334443        5.5314211971        4.3181792378
O         9.4257286577       11.3195547994        9.2248864242
O        13.2705474320        7.5881931015        5.4180602445
O         3.8065193535        9.5215948470        0.3650512104
O         9.5615837345        5.5839767392        2.7963319134
O         7.5164822552       11.3364653461        7.5748243448
O        11.3447735451        9.4909735578        0.4140784264
O         5.7357613991        7.5697593883        5.1653525361
O         5.5643729992        9.4178460018        6.7587687313
O        11.2350980134        7.6069870658        2.0176382862
O         9.4404642866        3.9434572715        9.1446463379
O         7.5877871397       13.0537964049        4.4509867573
O         7.4980998291        3.6520034499        7.5501049163
O         9.4308452566       13.4534336643        2.8569393981
O         7.4460647045       -0.0436620310        2.0297319936
O         9.2247594606        1.8101414176        6.7183541796
O         0.0775224627        9.3765515807        4.4373045306
O         1.9335852057        7.5801231180        9.1943353435
O         9.3191611823       -0.0315608069        5.2019410176
O         7.6230377019        1.9063152808        0.4461426975
O         1.9656338949        9.6866682634        2.7749692926
O         0.0393652065        7.5691730470        7.6244979125
O         7.5170238389        3.7931991663        1.9435926103
O         9.5063133179       13.2145445544        6.7345423324
O        11.4376451958        9.2323057055        4.3744784645
O         5.6673282064        7.6867432657        9.1173485186
O         9.4766437763        3.6866716509        5.1902082958
O         7.5672357768       13.2204173661        0.4260304115
O         5.7435235986        9.3966396261        2.7206095827
O        11.3009077970        7.6386452479        7.6066737222
O         3.7889561417        7.3726318615        7.6100527709
O        13.3240922851        9.6092145109        2.8121023533
O        13.2658389477        7.6709612919        9.3271607561
O         3.8494903145        9.4204499437        4.2901084681
O         9.6017209343        5.5306972874        6.7497602344
O         7.6404655354       11.3267694881        1.9484667475
O         7.3534668060        5.6981149941        0.3768404784
O         9.5596646298       11.2259005055        5.2054411614
O         7.8419358745        7.5936610360        1.9192436315
O         9.4552308760        9.4244798203        6.8045913833
O         7.5529831697        9.3755908141        4.3213219794
O         9.4638860727        7.4446975442        9.2098254385
O         9.3673898224        7.4805400229        5.2487509289
O         7.5196761129        9.4719462640        0.3689674187
O         9.5720843263        9.5036519639        2.8747064014
O         7.5958594222        7.5410946247        7.5930791399
     192
 i =        2, E =     -5772.8014986425
Ti        -0.0594074868        0.1162138638        0.0313156092
Ti         1.8567204836        1.9276602233        4.8780596846
Ti         0.0347373335        2.0086484997        2.4889838254
Ti         1.8431299855       -0.0620823297        7.1944927533
Ti        -0.0520813845        3.8316134963       -0.0300595862
Ti         1.9470835790       13.2065865993        4.8411892377
Ti        11.3018540716        1.9574044071        2.4295280961
Ti         5.6021531424       -0.0753571379        7.2146212367
Ti         1.9042679326        3.8042099862        7.2474061751
Ti         0.0091635257       13.3319617468        2.4579126113
Ti         5.6863717414        1.8516243844        4.8101203591
Ti        11.2879662557        0.0923306805       -0.0305699508
Ti         3.6616670875        0.0807095055        0.0349132041
Ti        13.1620767382        1.7954945974        4.7399291828
Ti        13.2625357802       -0.0399184767        7.1790567229
Ti         3.7651536031        1.8397929537        2.5011870088
Ti         1.9613465880        5.6551096595        4.8330440736
Ti         0.0047249010       11.5729216549       -0.0118523391
Ti        -0.0130345134        5.7083050090        2.4768805065
Ti         1.8862231097       11.3465827553        7.3234559283
Ti         0.0412898786        7.4847235117        0.0264956728
Ti         2.0234399661        9.5168467275        4.8623885061
Ti         7.4995218004        1.9537316338        2.3365371905
Ti         9.4791080711       -0.1050328513        7.2238330270
Ti         1.9379698005        7.5718381523        7.1773826495
Ti         0.1017054365        9.5532936119        2.4993550354
Ti         9.3535699334        1.8237106587        4.7913782010
Ti         7.4669725013       -0.0358545577       -0.0584882587
Ti         3.7403940110        3.7722727156        0.0057222247
Ti        13.2281450129       13.1231928330        4.7813851172
Ti        11.3604500757        5.7164798968        2.3862107311
Ti         5.6734241193       11.3209979692        7.1776468180
Ti        13.1651587680        3.7043613111        7.2304105825
Ti         3.7814627988       13.1969475633        2.4458907361
Ti         5.7001930357        5.6967241185        4.8297524183
Ti        11.2245936435       11.3866585338        0.0785968718
Ti        11.3050319862       13.3155326956        2.3466092920
Ti         5.6618485186        3.7225802852        7.1447648366
Ti         3.8651032671       11.3972052811        0.0192363098
Ti        13.2724519759        5.5941369920        4.8669204147
Ti         5.7701274027       13.2017389506        4.8064051378
Ti        11.2683307029        3.7997480213       -0.0439193060
Ti        13.1235551016       11.3564479588        7.2571241130
Ti         3.8068169466        5.6368056293        2.3989456828
Ti         3.7884390989        7.5794064684        0.0265392369
Ti        13.2779957101        9.4302673113        4.8430247173
Ti         7.4993654325        5.6803877222        2.4116579604
Ti         9.4140417937       11.1829819613        7.1689234442
Ti        13.2948981743        7.5287232395        7.1950586938
Ti         3.8612407075        9.4376673426        2.3544226413
Ti         9.5201218949        5.5703566813        4.7302772327
Ti         7.5638364218       11.3545955421        0.0373686001
Ti        11.3913969570        9.4554465415        2.4351541136
Ti         5.6651912765        7.5816205725        7.2208210027
Ti         5.7685265985        9.4173430910        4.7615686060
Ti        11.3187338477        7.5861914252        0.0024867523
Ti         9.4355943797        3.6655342465        7.1746136681
Ti         7.5411206413       13.3188611083        2.3904849142
Ti         7.4749641460        3.7999259813       -0.0565761204
Ti         9.4951433614       13.2381526371        4.7913828749
Ti         7.6065834479        7.5387731776       -0.0625685830
Ti         9.5218264870        9.4217300355        4.7806186891
Ti         7.6133344214        9.4168547028        2.3329726231
Ti         9.5140712396        7.3918961547        7.1551041151
O         0.0541514781        0.0630069698        2.0176303884
O         1.7692858359        1.9180261453        6.7568810266
O        -0.0232100240        1.9704447766        4.3855605099
O         1.7967426693        0.1161802010        9.2039135460
O         1.8209415107       -0.0094188166        5.2762311564
O        -0.1034480931        2.0084114757        0.4586100824
O         1.8620044088        2.0659582918        2.8227747166
O        -0.0544009415       -0.0500583881        7.6471777571
O        -0.0592555709        3.8893530765        2.0662471514
O         1.9812778527       13.2497413004        6.8267445777
O        11.2967730432        1.8436165138        4.3301744237
O         5.6061722004        0.0209122663        9.2378951434
O         2.0424545075        3.7798256287        5.2053967665
O         0.0398452357       13.3770199017        0.4447704598
O         5.6332661344        1.9325899731        2.8293057611
O        11.3065620433        0.0700874310        7.5846429814
O         3.7024579946        0.0653355556        7.6755047320
O        13.1865257519        1.9011398423        2.8514680998
O        13.1837821549       -0.0042226794        9.1829798908
O         3.7242649746        1.7044719498        4.3842387229
O         1.8730992748        5.6343355417        6.7629395078
O         0.0288791065       11.4223603880        1.9014735945
O         0.0362535863        5.7054202944        0.4658315804
O         1.8887916511       11.3330182329        5.2536055928
O         0.1277407486        7.7025125500        1.9278181882
O         2.0500611795        9.4667420997        6.7847334418
O         7.5006230886        1.9116040228        4.3732814558
O         9.4165617404        0.0030407660        9.1630316245
O         1.9038416436        7.5630804901        5.2783754934
O         0.0745247511        9.5396841492        0.2652069856
O         9.3809353086        1.9667418641        2.8292882796
O         7.4772306188       -0.1250188752        7.6838371342
O         3.7368067667        0.0718223197        2.0246984568
O        13.2714001014        1.8651914441        6.7809857410
O         0.0084038824        5.5926303204        4.4548111376
O         1.8913944482       11.3581225354        9.2342681755
O        13.2253968847       -0.0012363492        5.1795443696
O         3.7137729611        1.9340413594        0.4530953630
O         1.9427433036        5.7373042608        2.8776878646
O         0.0586845259       11.4333671717        7.6175235534
O        11.3189121904        1.9846852792        0.3204638180
O         5.7784761536       -0.0596792114        5.2593481613
O         5.6309033597        1.8224297242        6.7671369856
O        11.3019149362        0.1286402946        1.9124447813
O         1.8887141822        3.8192209697        9.2280325779
O        -0.0150636550       13.2116512342        4.4014117720
O         0.0045255867        3.7665713208        7.6854913724
O         1.8784588299       13.2357207048        2.8711791920
O         3.8935180050        3.8549336204        2.0487735003
O        13.1578537892       13.2381810030        6.7787330322
O        11.3678322297        5.6585833679        4.3944397811
O         5.6946802406       11.4421632900        9.2206209227
O        13.1567520918        3.8086663391        5.2306273820
O         3.6589485932       13.2960777420        0.4874297652
O         5.7153045732        5.8636203310        2.7687163763
O        11.3219305037       11.3333903029        7.6225798688
O        11.2791266018       13.2715998394        0.3943645189
O         5.5899116213        3.7199770608        5.1987987561
O         3.7944123397       11.3750461827        7.6695205785
O        13.2887188319        5.8891710600        2.8719541172
O         5.5286609367       13.2033863151        6.7989856479
O        11.4515057345        3.8077400718        1.9568379069
O        13.2590835167       11.4358050197        9.1870001742
O         3.8577046610        5.7197348868        4.3983850353
O         5.7432237495        5.6312884075        6.7234794048
O        11.2368519595       11.4130249875        1.9992803169
O        13.2107698039        3.8829670292        9.1408119140
O         3.7780169561       13.2228261060        4.4076803086
O        11.3970125932        5.7461726901        0.4146152166
O         5.7407950381       11.2885852193        5.2576829963
O         3.7554937372        3.7292829917        7.6688295018
O        13.2302255960       13.2766874598        2.7903219364
O        13.1058500433       11.3530051946        5.1692517297
O         3.7438636497        5.6812753990        0.4389883309
O         5.6943875867       13.2324879297        2.8608824625
O        11.3043250397        3.5863128365        7.5870725552
O         3.9204990272       11.4043963289        1.9765385673
O        13.2261616770        5.6544506567        6.8219140351
O        11.3017041860       13.2863138839        4.3327733813
O         5.6599157529        3.7835453622        9.1536923215
O         3.7558823164        7.6171979291        1.9299644700
O        13.3027720246        9.5480559056        6.7763856200
O         7.5881056038        5.5294378738        4.3224880594
O         9.4337715853       11.3044445599        9.1665195428
O        13.3097674381        7.5781236216        5.3490803720
O         3.7980098804        9.5123367324        0.3946458914
O         9.5093176313        5.5846937381        2.8075123359
O         7.5211662286       11.3159366927        7.5720471452
O        11.3605293703        9.4844516135        0.4779518881
O         5.7438786411        7.5483002804        5.1881263863
O         5.6209596114        9.4040030453        6.7638469613
O        11.3040651197        7.6180162198        1.9928081131
O         9.4206460876        3.9165092761        9.1414208654
O         7.5724175439       13.0994031036        4.3986716665
O         7.5189378327        3.6995868774        7.5832982391
O         9.4260858633       13.3542472976        2.8307611401
O         7.4856278416       -0.0041583239        2.0221886105
O         9.2927679105        1.8266355901        6.7501505569
O         0.0505283282        9.4511911430        4.4173362548
O         1.9076673595        7.6582049103        9.2049151924
O         9.3707670542       -0.0207352991        5.2072534790
O         7.5400285714        1.9147477185        0.4202347199
O         1.9331876016        9.6218889048        2.7754821855
O         0.0293388682        7.5825818794        7.6239452030
O         7.4841464496        3.8164883921        1.9410380950
O         9.4847786535       13.2240404269        6.7554945772
O        11.4103329954        9.2604364666        4.3929022331
O         5.6694866586        7.6273081730        9.1457774856
O         9.4537204161        3.7126678589        5.2035594557
O         7.5811607862       13.2510298106        0.4359242949
O         5.7295633608        9.4188049429        2.7639381455
O        11.3339487960        7.6111167485        7.6486709576
O         3.7837605427        7.4156072921        7.5972295978
O        13.2898697915        9.5993192877        2.8214576984
O        13.2688813866        7.6506942911        9.2257227251
O         3.8437689864        9.3962956583        4.3143268773
O         9.5352424903        5.5654423208        6.7584598226
O         7.6576164594       11.3264167007        1.9425258977
O         7.4359918018        5.6920502581        0.4158413905
O         9.5490594872       11.2517327823        5.2125943607
O         7.7744833733        7.5614642044        1.9341704280
O         9.4728929075        9.4161144343        6.8290089072
O         7.5769548398        9.3876602393        4.3361172886
O         9.4679525047        7.5042980837        9.1785724157
O         9.4197220350        7.4924591039        5.2408372164
O         7.5329502889        9.4566256671        0.3777760765
O         9.5280008530        9.4966108969        2.8707196483
O         7.5891636761        7.5134281606        7.6043045440
     192
 i =        3, E =     -5772.8414802320
Ti        -0.0467221895        0.1183025603        0.0168780283
Ti         1.8621988605        1.9178808004        4.8613836785
Ti         0.0324676593        2.0022790210        2.4699290826
Ti         1.8470803531       -0.0533434591        7.2021477272
Ti        -0.0613686493        3.8163509232       -0.0281779798
Ti         1.9440913143       13.2245524665        4.8278775662
Ti        11.3258309640        1.9418344461        2.4326094415
Ti         5.6034715411       -0.0477766239        7.2092912560
Ti         1.8995880083        3.7925194376        7.2447094537
Ti         0.0058754253       13.3340348040        2.4472411832
Ti         5.6902606253        1.8606668476        4.8088564953
Ti        11.2861574633        0.0805974077       -0.0250005051
Ti         3.6726291393        0.0801899774        0.0263356240
Ti        13.1811307392        1.8149983597        4.7729417254
Ti        13.2461991829       -0.0257432576        7.2026822703
Ti         3.7733948871        1.8475968400        2.4794669787
Ti         1.9560422459        5.6642574645        4.8253069434
Ti        -0.0050409903       11.5653325086       -0.0304464559
Ti        -0.0052635241        5.6966464938        2.4681484255
Ti         1.8701532154       11.3549934849        7.2856645693
Ti         0.0169329121        7.4905978858        0.0033058227
Ti         2.0018281805        9.5181398518        4.8456980482
Ti         7.5143749744        1.9471616759        2.3342438995
Ti         9.4674851860       -0.0868894068        7.2154419150
Ti         1.9256205397        7.5684715678        7.1754577075
Ti         0.0812838185        9.5352682061        2.5005934198
Ti         9.3685552771        1.8391795527        4.7880035447
Ti         7.4675932970       -0.0128951474       -0.0547609352
Ti         3.7459379633        3.7809983826        0.0149167736
Ti        13.2310901227       13.1465881979        4.7847544443
Ti        11.3618099701        5.7089169919        2.3942234939
Ti         5.6708732846       11.3180896214        7.1927314242
Ti        13.1781496185        3.7231897933        7.2185727156
Ti         3.7814042465       13.2221936827        2.4238803824
Ti         5.7013054687        5.6772519870        4.8397969904
Ti        11.2440878793       11.3902767203        0.0485709343
Ti        11.3241296446       13.2930462274        2.3725156695
Ti         5.6649637364        3.7307400977        7.1639067684
Ti         3.8422448567       11.3892581540        0.0187814031
Ti        13.2702654323        5.5982212511        4.8466616153
Ti         5.7415601768       13.2025635385        4.8017545124
Ti        11.2715763715        3.7968441628       -0.0196360057
Ti        13.1670572595       11.3323009833        7.2669695255
Ti         3.7981913747        5.6369910816        2.3960968860
Ti         3.7742008889        7.5940968626        0.0167531031
Ti        13.2766947230        9.4436322078        4.8413772388
Ti         7.5033075266        5.6892040794        2.4023245771
Ti         9.4219732198       11.2107136949        7.1654833483
Ti        13.2941440231        7.5234640882        7.1830270427
Ti         3.8388204350        9.4358056651        2.3777149026
Ti         9.5017090125        5.5842881539        4.7480524829
Ti         7.5714858150       11.3469742858        0.0224766249
Ti        11.3986525459        9.4578975452        2.4258479420
Ti         5.6724727687        7.5566794765        7.2344743940
Ti         5.7572892255        9.4123213348        4.7792038189
Ti        11.3437478294        7.5917488206       -0.0077366317
Ti         9.4330411762        3.6914715231        7.1851610813
Ti         7.5490815422       13.3262753428        2.3839597374
Ti         7.4817451351        3.8030287918       -0.0419077828
Ti         9.4867220729       13.2295880962        4.7884459811
Ti         7.6094011403        7.5409510852       -0.0551969220
Ti         9.5146761787        9.4280974186        4.7759257758
Ti         7.6043167692        9.4352179417        2.3578605014
Ti         9.5096628552        7.4355338175        7.1677655892
O         0.0412458698        0.0742759027        1.9846772390
O         1.8211171440        1.9123848315        6.7672445816
O         0.0048193671        1.9312536940        4.3853256358
O         1.8165352608        0.1160686787        9.1981330285
O         1.8124340693       -0.0126648121        5.2708702732
O        -0.0829595762        1.9934250518        0.4514725760
O         1.8666295299        2.0163404294        2.8099255346
O        -0.0410687413       -0.0593999218        7.6468269711
O        -0.0849170785        3.8731079566        2.0420673665
O         1.9469960270       13.2326205120        6.8208878426
O        11.2935779862        1.8546312467        4.3652972884
O         5.5921664574        0.0157977165        9.2147567566
O         1.9914142322        3.7855803211        5.2196308955
O         0.0226208576       13.3626800406        0.4399569341
O         5.6464275592        1.9663437891        2.8256453794
O        11.3035021721        0.0532038271        7.5973045901
O         3.7105710033        0.0303503180        7.6701370907
O        13.2011778928        1.8984206015        2.8647368375
O        13.1941670835        0.0590794094        9.1692627978
O         3.7493183073        1.7453955609        4.3917234655
O         1.8621713552        5.6488958964        6.7885026496
O        -0.0052749281       11.4054999139        1.9002937154