     192
 i =        1, E =     -5772.7038755818
Ti        -0.0044515259        0.0139655484       -0.0062915294
Ti        -0.0077614984       -0.0030865398       -0.0167617851
Ti        -0.0071711739        0.0022626511       -0.0148125175
Ti        -0.0073423232        0.0094310140        0.0130870242
Ti        -0.0050948623       -0.0065087494        0.0141447211
Ti         0.0015111805        0.0047437298        0.0043738565
Ti         0.0052050821        0.0041630143       -0.0264776756
Ti         0.0004421678        0.0078840769        0.0059421825
Ti        -0.0010920885       -0.0146193058       -0.0051547868
Ti        -0.0130516143       -0.0022075043       -0.0002031207
Ti        -0.0138360667        0.0046360208        0.0001931024
Ti        -0.0037414145       -0.0075401584       -0.0019137097
Ti        -0.0000393061       -0.0055064138       -0.0061806911
Ti         0.0150270995        0.0063414289        0.0232250585
Ti        -0.0146211232        0.0084780380        0.0094555712
Ti         0.0028947468        0.0228338328       -0.0124659928
Ti        -0.0022085333        0.0058448231       -0.0201589487
Ti        -0.0017627783        0.0022735878       -0.0120707642
Ti         0.0070079037        0.0026972274        0.0046854723
Ti         0.0078182019        0.0067236154       -0.0176921840
Ti        -0.0112786218        0.0071629835       -0.0109487469
Ti        -0.0047023007       -0.0122767455       -0.0311523187
Ti        -0.0025591434       -0.0104855862       -0.0080909621
Ti        -0.0038381503        0.0092244052       -0.0006032750
Ti        -0.0013571748       -0.0049407928        0.0105530358
Ti        -0.0009606575       -0.0071426440        0.0153162927
Ti        -0.0000439067        0.0025031703        0.0098764113
Ti         0.0145717461        0.0075990738        0.0289570515
Ti         0.0147662099        0.0006969802        0.0057743877
Ti        -0.0110190666        0.0208766230       -0.0082897241
Ti         0.0063912855       -0.0072196101        0.0020313639
Ti        -0.0001943427       -0.0036119439        0.0122287810
Ti         0.0047760925        0.0033164821       -0.0130880090
Ti         0.0056058711        0.0186945193        0.0004116094
Ti         0.0165174162       -0.0107445108       -0.0101656456
Ti         0.0010120958        0.0034238653       -0.0115331460
Ti         0.0010835429        0.0003129437       -0.0019120089
Ti        -0.0022879515        0.0003373035        0.0000432409
Ti        -0.0065087019       -0.0029295009       -0.0159799700
Ti        -0.0111311726        0.0089983545        0.0019655764
Ti        -0.0094531884       -0.0066824196       -0.0048173414
Ti         0.0043943159        0.0131406527        0.0111325691
Ti         0.0083754136        0.0022260930       -0.0000589284
Ti         0.0047012643        0.0063870450        0.0072361490
Ti         0.0009538341        0.0102226671       -0.0194605807
Ti        -0.0006134055        0.0077725140       -0.0019391743
Ti         0.0019232754        0.0055714191       -0.0029510543
Ti        -0.0062452818        0.0271467317        0.0035291263
Ti        -0.0074977632        0.0001673422        0.0207316783
Ti        -0.0118711058        0.0046380277        0.0008127051
Ti        -0.0031651705        0.0011277903        0.0115158642
Ti         0.0091463507       -0.0001160116       -0.0145306920
Ti         0.0099667752        0.0047173018       -0.0064252893
Ti         0.0068661663       -0.0080582773        0.0060994141
Ti        -0.0112741326        0.0035855251        0.0017180785
Ti         0.0026956144        0.0089871793       -0.0070296634
Ti        -0.0043185230       -0.0012459811       -0.0029158051
Ti         0.0106016805       -0.0079203443       -0.0041043836
Ti         0.0097862647       -0.0026000410        0.0048666623
Ti        -0.0064518980       -0.0081493820        0.0108165026
Ti         0.0006694210        0.0033967321       -0.0037926242
Ti         0.0005575229        0.0008649973        0.0079785552
Ti        -0.0019162213        0.0040969944        0.0042499811
Ti        -0.0111067020        0.0077059366        0.0055826065
O         0.0016970719        0.0017276822       -0.0091182802
O         0.0089935781       -0.0028736593        0.0151200754
O         0.0170108738       -0.0043390702        0.0032793078
O         0.0031937126       -0.0037004136       -0.0058262110
O         0.0006678954        0.0009102249       -0.0057001977
O         0.0065161238       -0.0019655764       -0.0033784311
O         0.0034290161       -0.0136487983        0.0007474733
O         0.0179322056       -0.0007090010        0.0054902136
O        -0.0024024655       -0.0042052243       -0.0067005449
O        -0.0008209872       -0.0181541353        0.0013139069
O        -0.0135142141       -0.0008777575        0.0150118944
O        -0.0199059490        0.0045873601       -0.0042719821
O        -0.0070459621        0.0115536698        0.0078018675
O         0.0015532348       -0.0054582244        0.0031437891
O         0.0011119700        0.0056649647       -0.0016161812
O         0.0090809344        0.0006910636        0.0040607164
O         0.0016130246       -0.0046849002       -0.0045426815
O        -0.0017364319        0.0026553608       -0.0059542106
O         0.0078217711        0.0108056635       -0.0078605768
O         0.0066004626        0.0023386629        0.0152402709
O        -0.0039902778        0.0100866098        0.0167473512
O        -0.0000084778       -0.0087076436        0.0030408352
O        -0.0056864300       -0.0108193916       -0.0002752485
O        -0.0009792345        0.0155020589        0.0051746942
O         0.0004229608       -0.0050945809       -0.0002041090
O        -0.0074143879       -0.0009123148        0.0168510140
O         0.0186447574        0.0027710731        0.0030743917
O         0.0017266482       -0.0026108127       -0.0062559695
O         0.0086198857       -0.0009512248       -0.0046786555
O        -0.0033011823       -0.0052294899       -0.0022858147
O         0.0031356893       -0.0073037867       -0.0074973135
O        -0.0024877067        0.0032619728       -0.0212876255
O         0.0000723277       -0.0124721718       -0.0022454943
O         0.0047186552        0.0033194281       -0.0053299441
O         0.0119051576       -0.0007546304       -0.0095535500
O        -0.0135706030        0.0003699558        0.0030973305
O         0.0042702842        0.0099712625        0.0065253072
O         0.0006164507       -0.0049306856        0.0081171396
O        -0.0081120000       -0.0060097192       -0.0069327090
O        -0.0233761885        0.0027307199        0.0131710958
O        -0.0031190070       -0.0149106731        0.0084524302
O        -0.0045726834        0.0150619422       -0.0042731565
O         0.0047732332       -0.0034579280       -0.0008896829
O         0.0035365023       -0.0013098833        0.0043697597
O        -0.0138286951       -0.0001290096        0.0056255895
O         0.0089203420        0.0048268543       -0.0126638527
O        -0.0069744422       -0.0013816809       -0.0062037490
O         0.0025827452       -0.0016492850        0.0018049142
O        -0.0067192677       -0.0080976707       -0.0081245321
O         0.0042844715       -0.0180294891        0.0035576800
O         0.0063326060       -0.0012858138        0.0020303977
O         0.0012444584       -0.0013153970       -0.0048616173
O        -0.0035380218       -0.0130258291        0.0011206623
O         0.0015805887        0.0015835031       -0.0082134400
O        -0.0162779256       -0.0041476511        0.0038386089
O         0.0020451740       -0.0001224244        0.0003534703
O         0.0030969199        0.0129666539       -0.0049350660
O         0.0072363588       -0.0029460000        0.0044232975
O         0.0124508398       -0.0002880438       -0.0007815264
O         0.0030496956       -0.0053925666        0.0029671198
O        -0.0023180125       -0.0010205191        0.0052207281
O        -0.0100021051       -0.0074922212        0.0056556107
O         0.0075003238        0.0006067019       -0.0015951908
O        -0.0084746365       -0.0000758879       -0.0004055939
O        -0.0039847842        0.0064142632        0.0026472061
O         0.0131840489       -0.0204717504        0.0077319870
O         0.0006208183       -0.0006365805        0.0037482956
O        -0.0058152062        0.0004367027        0.0088657077
O         0.0037276517       -0.0039499875       -0.0007228175
O        -0.0095388843       -0.0048873324       -0.0019263437
O         0.0094902933        0.0001894439       -0.0004172518
O         0.0053222296        0.0065972159        0.0145635632
O         0.0026118441       -0.0333290393        0.0044268689
O         0.0032485928        0.0004547258        0.0035502448
O        -0.0032597568        0.0066346068       -0.0009634537
O         0.0069492873        0.0030362062        0.0038916156
O        -0.0020571910       -0.0138131273        0.0090229585
O         0.0008824394        0.0046983572       -0.0069241211
O         0.0218901511       -0.0051417216        0.0041251795
O        -0.0130538818       -0.0019106357        0.0022869585
O        -0.0017851279       -0.0121251810        0.0068824678
O        -0.0008468674       -0.0080979156        0.0089670296
O         0.0039605838        0.0001190802        0.0021778868
O        -0.0069502608       -0.0016755446       -0.0111520826
O         0.0024095849       -0.0043755294       -0.0304489780
O         0.0011403793       -0.0025135512        0.0056067669
O        -0.0206041046       -0.0006192321       -0.0005050796
O         0.0079234946       -0.0013175124        0.0045954055
O         0.0037818578       -0.0024083598        0.0129645810
O        -0.0019569743       -0.0010045845        0.0071953877
O         0.0038469663        0.0010214709       -0.0045286415
O         0.0073060366        0.0022956955       -0.0084050608
O        -0.0125493272       -0.0033250769       -0.0042043590
O         0.0035800152        0.0049356311       -0.0100386968
O         0.0078196594        0.0040261713        0.0078604698
O        -0.0103572211       -0.0093439850       -0.0081758152
O         0.0039579891        0.0188604952       -0.0052970630
O         0.0081146732        0.0028939909        0.0073226273
O        -0.0001339827        0.0100124875       -0.0127922079
O        -0.0010998155        0.0086954195        0.0002968608
O         0.0060629265       -0.0000632043       -0.0015854699
O        -0.0095786387       -0.0039213036       -0.0062113695
O        -0.0037247285       -0.0067771394        0.0037749993
O         0.0012259007        0.0010033299        0.0035686907
O        -0.0019349274        0.0100898713       -0.0021693329
O        -0.0032800158       -0.0063031540        0.0047990963
O        -0.0061225754        0.0042047054        0.0032955631
O        -0.0036353758       -0.0070685779        0.0073636002
O        -0.0021065982        0.0059268929        0.0016560555
O         0.0010005031        0.0124564343        0.0032710023
O         0.0030408372        0.0049249377        0.0059578932
O         0.0229907803       -0.0034185992        0.0108617397
O        -0.0017463313        0.0062216943       -0.0029820740
O        -0.0119268790       -0.0010755271        0.0013082170
O         0.0081182611       -0.0042871452       -0.0127406538
O        -0.0020565067       -0.0009014313        0.0081302802
O        -0.0067527486        0.0088280237       -0.0002140228
O         0.0018870228        0.0004483098        0.0055650749
O         0.0085599375       -0.0025413039        0.0035003296
O        -0.0039277688        0.0071621479        0.0011577325
O        -0.0056012592       -0.0109519533        0.0025738671
O         0.0012794673       -0.0246830903       -0.0025142913
O         0.0234736354        0.0024612071        0.0008121362
O        -0.0049455613        0.0053634492       -0.0063421781
O         0.0045836611       -0.0030437782       -0.0047586311
O         0.0021606261       -0.0118007142        0.0033889842
O        -0.0217739309        0.0009251751       -0.0060532332
O        -0.0022184561       -0.0050445755        0.0047187794
     192
 i =        2, E =     -5772.8014986425
Ti        -0.0021489808        0.0043763517        0.0029270578
Ti         0.0013206603       -0.0046938896       -0.0056996919
Ti        -0.0032450322       -0.0023145201       -0.0117043657
Ti         0.0015342791        0.0175499840        0.0045576841
Ti         0.0027063167       -0.0052514688        0.0025182827
Ti        -0.0045144004        0.0066839112       -0.0048236482
Ti        -0.0003312806        0.0046385106       -0.0061826918
Ti        -0.0002679806        0.0081097461        0.0064111658
Ti        -0.0059407849       -0.0090513587       -0.0033005836
Ti        -0.0011808531       -0.0010651978       -0.0034297674
Ti        -0.0089434071       -0.0001345620        0.0027003297
Ti         0.0030965275        0.0011032487       -0.0048438384
Ti         0.0050450692       -0.0045755465       -0.0040099706
Ti         0.0037082359        0.0075417557        0.0155247706
Ti        -0.0107253202        0.0089215650        0.0033631717
Ti        -0.0034952903        0.0144921357       -0.0096859486
Ti        -0.0004603722        0.0030581906       -0.0101116331
Ti        -0.0018683851        0.0057030444       -0.0062090647
Ti         0.0095879698        0.0045044114        0.0034182565
Ti         0.0012055950       -0.0030576156       -0.0121643084
Ti        -0.0063664450        0.0072746422       -0.0115090760
Ti        -0.0055049182       -0.0096180914       -0.0105073162
Ti         0.0042371853       -0.0016248845        0.0037599038
Ti        -0.0080317324        0.0089621717       -0.0004976126
Ti        -0.0060972451       -0.0020778582        0.0053951633
Ti        -0.0075961048       -0.0017339202        0.0043102677
Ti         0.0022288787        0.0058442021       -0.0036291519
Ti         0.0007149921        0.0097468977        0.0074939755
Ti         0.0063061463        0.0059707106        0.0063583650
Ti        -0.0012375709        0.0177256994       -0.0058545925
Ti         0.0014380047       -0.0003487007        0.0024949027
Ti        -0.0060296487       -0.0021122941        0.0048562892
Ti         0.0125582476       -0.0000034442       -0.0095863137
Ti        -0.0049865073        0.0109036074       -0.0055042202
Ti         0.0070684592       -0.0044417142       -0.0027950551
Ti         0.0155606686       -0.0069187554       -0.0101618816
Ti         0.0021567032       -0.0008544862        0.0078770006
Ti        -0.0019970936        0.0013161417        0.0033745623
Ti        -0.0083563213        0.0054693491       -0.0053933165
Ti        -0.0030451102        0.0091938101       -0.0014911382
Ti        -0.0104834318        0.0005830262        0.0026815963
Ti         0.0045254016        0.0073552060        0.0056163402
Ti         0.0115653367       -0.0007398071        0.0041737747
Ti        -0.0035983241        0.0051599651        0.0019636273
Ti        -0.0011858283       -0.0038591658       -0.0098808560
Ti         0.0004563776        0.0012899983       -0.0028794861
Ti         0.0126753729        0.0032318328       -0.0087665374
Ti         0.0016456355        0.0131020694        0.0001378097
Ti        -0.0021499763        0.0061526732        0.0184800429
Ti        -0.0078475802        0.0046227975        0.0023348197
Ti        -0.0080754950        0.0043645689        0.0064599864
Ti        -0.0028109523       -0.0053560897       -0.0014036009
Ti         0.0080877355        0.0026767521       -0.0062679764
Ti         0.0055268035       -0.0093466122       -0.0028662609
Ti        -0.0041004603       -0.0027867243        0.0039169904
Ti         0.0088906702        0.0083924443       -0.0048085220
Ti        -0.0075315162        0.0020233145       -0.0014048853
Ti         0.0088230088       -0.0109651538        0.0003654316
Ti         0.0043187346        0.0056823775        0.0045677661
Ti        -0.0037052351       -0.0039290141        0.0040253267
Ti        -0.0027572550       -0.0022190421        0.0028854698
Ti        -0.0038991972       -0.0103509426        0.0002932495
Ti         0.0044208006        0.0025778066        0.0056811369
Ti        -0.0081408932        0.0076549831        0.0010286489
O        -0.0016819555        0.0118084061       -0.0011551844
O         0.0022589940        0.0008418038        0.0062352017
O         0.0023049590       -0.0044865472        0.0062755211
O         0.0078552427        0.0018272159        0.0011309302
O        -0.0016734900       -0.0040286834       -0.0060151291
O         0.0013091257       -0.0063465435        0.0044904953
O         0.0027863117       -0.0015537027       -0.0006146956
O         0.0071259580       -0.0017007491       -0.0007352321
O        -0.0016429947       -0.0049015205       -0.0036917851
O        -0.0036443890       -0.0141494988       -0.0014187909
O        -0.0073375805       -0.0003855937        0.0113214325
O        -0.0048535849       -0.0031329873       -0.0034015870
O        -0.0036055526        0.0015065516        0.0046638441
O        -0.0017386446       -0.0088207326       -0.0023002571
O         0.0070538732       -0.0003119371       -0.0001856155
O         0.0012693420       -0.0028011955        0.0034691269
O         0.0032813954       -0.0027007681        0.0003349163
O         0.0049002940       -0.0017685385       -0.0050629749
O        -0.0006059266        0.0039593137       -0.0011876529
O         0.0069292807        0.0023172266        0.0087809913
O         0.0006662246        0.0063026348        0.0081110871
O        -0.0020485089       -0.0059996143        0.0059606110
O        -0.0014103140       -0.0042755020       -0.0000576868
O         0.0010896466        0.0079450520        0.0024760659
O        -0.0048388033       -0.0020575334        0.0065770978
O        -0.0042393173        0.0021304406        0.0070410745
O         0.0064553799       -0.0035621920       -0.0006621065
O         0.0023823371        0.0012967043       -0.0001361849
O         0.0002138798        0.0041957529       -0.0088512724
O        -0.0063624195        0.0004945918       -0.0006920638
O         0.0024951102       -0.0031079828       -0.0073911942
O         0.0009266289       -0.0001580192       -0.0088629253
O         0.0019535853       -0.0166721303       -0.0016948166
O        -0.0009100208        0.0039009306       -0.0035045085
O         0.0097027093        0.0007583709       -0.0047868476
O         0.0008374357       -0.0007901636        0.0008517622
O         0.0015100009       -0.0035413179        0.0043308315
O        -0.0008752413        0.0018365460        0.0049341135
O        -0.0085715843       -0.0015862819       -0.0006045602
O        -0.0092644938        0.0000574429        0.0003328748
O        -0.0046932339       -0.0087798882        0.0085393168
O        -0.0026490562       -0.0023913222       -0.0034556238
O         0.0013905767        0.0059532568        0.0001243174
O        -0.0013849441       -0.0145339284        0.0017472902
O        -0.0047395435        0.0027241070       -0.0030739521
O        -0.0001780697       -0.0010829146        0.0026129591
O        -0.0028749104        0.0009665965       -0.0066317152
O         0.0113227548       -0.0006087383        0.0010858085
O        -0.0036755792       -0.0157181675       -0.0047509702
O         0.0043968059       -0.0052254538       -0.0085151718
O         0.0027825505       -0.0007298702       -0.0043389339
O         0.0033549148       -0.0039508359       -0.0026507511
O         0.0021274997       -0.0164158130       -0.0004438875
O         0.0031026945        0.0003893389       -0.0049937372
O        -0.0118083830       -0.0046202959        0.0052994040
O        -0.0051495794       -0.0000781532        0.0053603352
O         0.0018470858        0.0044366250        0.0046033551
O        -0.0007238691       -0.0004280718        0.0026298951
O         0.0056990112       -0.0050250252        0.0065856675
O        -0.0069645124       -0.0034072731       -0.0011197960
O         0.0033428360       -0.0031303336       -0.0021912077
O        -0.0063840454        0.0067771932       -0.0055827744
O        -0.0108321982       -0.0064539704        0.0035449981
O        -0.0076714487       -0.0043950208        0.0005982376
O        -0.0048047878        0.0035175083        0.0078259112
O         0.0023079314        0.0025753518       -0.0006006745
O        -0.0088413409        0.0027354270        0.0058972631
O         0.0028145976        0.0003730095        0.0002052023
O        -0.0009775241       -0.0104858685        0.0031866357
O        -0.0033750020        0.0060770353       -0.0043783084
O         0.0053276078        0.0011736802       -0.0029881577
O        -0.0078670545        0.0004259037        0.0044059551
O         0.0031814684       -0.0061780095        0.0032908573
O         0.0040170177        0.0039107572       -0.0022196246
O        -0.0061525140        0.0033537064        0.0003352517
O         0.0010141722        0.0041503911        0.0059807358
O        -0.0039467021       -0.0087065006        0.0062784325
O        -0.0002026068       -0.0024494653        0.0030394007
O         0.0094791152       -0.0003076427        0.0020057885
O        -0.0077913455       -0.0013493028       -0.0010902584
O         0.0031300238       -0.0017284253        0.0052159617
O        -0.0015002378       -0.0116823171        0.0028732244
O        -0.0048537376        0.0025370056        0.0072064698
O        -0.0038302031        0.0009275018        0.0000109030
O        -0.0013988795        0.0002909615       -0.0206088738
O         0.0023813423       -0.0012891331        0.0019709985
O         0.0038660197        0.0030328680       -0.0038661813
O         0.0103438633       -0.0002421106        0.0053731616
O        -0.0009670614        0.0056259296       -0.0064978121
O         0.0001281010        0.0016509165        0.0056737917
O         0.0010685697        0.0037148379        0.0004562161
O         0.0004096273       -0.0111841846        0.0035872862
O         0.0006057614       -0.0053068655        0.0023295647
O         0.0068243246        0.0037620261        0.0006669705
O         0.0030353834        0.0009513967        0.0027258859
O         0.0028218300        0.0003729422       -0.0058982763
O        -0.0004494663        0.0125149762       -0.0064854401
O         0.0034183360       -0.0009702279        0.0026344273
O         0.0080899816        0.0020907878       -0.0084275155
O         0.0014188335        0.0002209434       -0.0021652213
O         0.0016632432       -0.0062299839       -0.0024656709
O        -0.0006477697       -0.0064209954       -0.0042506803
O         0.0095922262       -0.0033079256        0.0076908363
O         0.0021224593       -0.0031401517       -0.0001327866
O         0.0000364691       -0.0030824564        0.0000206568
O        -0.0033614573       -0.0084092987       -0.0027983244
O        -0.0022898905        0.0065421979        0.0054814221
O        -0.0035918507       -0.0006572210        0.0036285014
O         0.0037902774       -0.0007504122        0.0023001059
O        -0.0002441048       -0.0011313159       -0.0011802722
O         0.0002834981        0.0000792202       -0.0014845703
O         0.0135747810       -0.0062682589       -0.0027138478
O        -0.0008007813        0.0023658732        0.0058085515
O        -0.0030033013       -0.0029646316        0.0013239549
O         0.0038098690        0.0007683552       -0.0014177651
O        -0.0064964466        0.0046664764        0.0066847183
O        -0.0004064232        0.0059720872        0.0010740339
O        -0.0030000125        0.0035385485       -0.0011484268
O         0.0049837263       -0.0004678465       -0.0094546336
O        -0.0041566188        0.0100686608        0.0014771271
O        -0.0036616766        0.0034276446        0.0020306904
O        -0.0015346686       -0.0105156451       -0.0079798668
O         0.0121284290        0.0037640557        0.0024274718
O        -0.0013136242        0.0025275049        0.0000910701
O         0.0009915360        0.0006819225       -0.0017796520
O        -0.0002884003       -0.0021209070        0.0017632925
O        -0.0086573908       -0.0004574486       -0.0034847130
O         0.0008191356        0.0001184047        0.0027379120
     192
 i =        3, E =     -5772.8414802320
Ti        -0.0016565508        0.0012902749        0.0024987669
Ti         0.0040833025       -0.0017714713       -0.0018747928
Ti        -0.0030609197       -0.0043442016       -0.0067414071
Ti         0.0011987614        0.0128185837        0.0009067522
Ti         0.0038549919        0.0013548694        0.0002310871
Ti        -0.0060933749        0.0042063470       -0.0035373880
Ti        -0.0054544418        0.0005917605       -0.0029031732
Ti         0.0008850495        0.0007461758        0.0037459622
Ti        -0.0040494388       -0.0029796815       -0.0016920669
Ti         0.0019965910       -0.0036247176       -0.0031367898
Ti        -0.0063809852       -0.0017719586        0.0002864888
Ti         0.0009831607        0.0015337400       -0.0004582846
Ti         0.0065385890       -0.0055191234       -0.0037271742
Ti         0.0006664564        0.0068913976        0.0085187528
Ti        -0.0047891499        0.0009172101       -0.0027174148
Ti        -0.0019746175        0.0125523814       -0.0047071469
Ti        -0.0004788986        0.0006356729       -0.0041185610
Ti         0.0004735423        0.0051679091        0.0023780416
Ti         0.0083072757        0.0067434072       -0.0012247689
Ti         0.0036829428       -0.0055804650       -0.0057447577
Ti        -0.0002908056       -0.0007666472       -0.0069700759
Ti        -0.0037312644       -0.0079766980       -0.0026800433
Ti         0.0050498020        0.0007857105        0.0057365656
Ti        -0.0087051045        0.0069154460       -0.0026458279
Ti        -0.0042736805       -0.0011500473        0.0047555687
Ti        -0.0086224474        0.0005615709       -0.0023977970
Ti         0.0052339114        0.0023479368       -0.0022691604
Ti        -0.0004060577        0.0049889649        0.0012200899
Ti         0.0022032924        0.0066182916        0.0032338034
Ti         0.0029152985        0.0100346496        0.0058693870
Ti        -0.0015880056        0.0019109906        0.0022209428
Ti        -0.0046647825       -0.0004848486        0.0024760898
Ti         0.0080454990        0.0016289444       -0.0043531623
Ti        -0.0040098627        0.0041909722       -0.0027230136
Ti         0.0033426539       -0.0020805443       -0.0073092963
Ti         0.0147398277       -0.0068598922       -0.0067756442
Ti        -0.0002645710        0.0013644696        0.0021607064
Ti        -0.0034194801       -0.0002226473        0.0051641421
Ti        -0.0054110107        0.0043500612       -0.0041929283
Ti        -0.0022959710        0.0103080624       -0.0018469111
Ti        -0.0074822883        0.0026106485        0.0057210655
Ti         0.0021045077        0.0059807762        0.0009255988
Ti         0.0062342632        0.0022381416       -0.0055163392
Ti        -0.0011260801        0.0051249421        0.0017979964
Ti         0.0017046629       -0.0047303466       -0.0061744613
Ti        -0.0047336661       -0.0021660086       -0.0016787319
Ti         0.0093470864        0.0024303044       -0.0037639341
Ti         0.0024604333        0.0086009472       -0.0010721521
Ti        -0.0020957971        0.0075723376        0.0082260297
Ti        -0.0024013834        0.0033578334        0.0007491089
Ti        -0.0046317422        0.0064639486        0.0040607017
Ti        -0.0057320372       -0.0047554496        0.0013102962
Ti         0.0023115476        0.0009780896       -0.0028332244
Ti         0.0025084042       -0.0033092399       -0.0018364407
Ti        -0.0007373069       -0.0029739602        0.0047488159
Ti         0.0046129777        0.0041655329       -0.0024783667
Ti        -0.0026063550        0.0013701498        0.0001505358
Ti         0.0054317462       -0.0107059742       -0.0000189993
Ti         0.0037114328        0.0046277362        0.0030822460
Ti        -0.0051717328       -0.0010212022        0.0042449410
Ti        -0.0035769299        0.0010923886        0.0039103105
Ti        -0.0026831532       -0.0100104157        0.0019523414
Ti         0.0043912360        0.0008767498        0.0016573368
Ti        -0.0044474040        0.0051424087       -0.0001549973
O        -0.0013510082        0.0035602077        0.0055501929
O         0.0002429095       -0.0026382516        0.0037682107
O        -0.0045798987        0.0018500528        0.0041426847
O         0.0020900188        0.0017169027        0.0018245633
O         0.0023157894       -0.0005602997       -0.0031304819
O         0.0026869243       -0.0033444075        0.0030203494
O         0.0039504518       -0.0007308845        0.0024732569
O         0.0051448133        0.0006849089       -0.0003766854
O         0.0036794770       -0.0059863127       -0.0018565972
O        -0.0004555657       -0.0028407349       -0.0008670036
O         0.0015521654        0.0009602426        0.0018992251
O         0.0016958849       -0.0010142886        0.0011768518
O         0.0004472191       -0.0015237493        0.0017218571
O        -0.0037676147       -0.0028996494       -0.0034407556
O         0.0031848454       -0.0070336520        0.0002218129
O         0.0044304358       -0.0013938466        0.0020426549
O        -0.0001015245       -0.0003776248       -0.0012889310
O         0.0034076560       -0.0010095251       -0.0048654256
O        -0.0034024299        0.0014598148        0.0011539328
O         0.0035132850        0.0027479987        0.0040713170
O         0.0024779884        0.0018214615        0.0033739998
O         0.0029327058       -0.0027161563        0.0057115262