     192
 i =        1, E =     -5780.9775017535
Ti         0.0006651162        0.0006644606       -0.0000001797
Ti        -0.0007356926       -0.0007349757        0.0000013279
Ti         0.0006657267       -0.0007583785       -0.0005900206
Ti        -0.0007582195        0.0006671762        0.0005923207
Ti         0.0006697566       -0.0012138875        0.0002837088
Ti        -0.0007590442       -0.0007138037       -0.0005908529
Ti         0.0007204515       -0.0007396421        0.0000016668
Ti        -0.0002515250        0.0006733862        0.0004104932
Ti        -0.0007097342       -0.0012043993        0.0003005332
Ti         0.0006657464       -0.0007113527        0.0000015771
Ti        -0.0002555251       -0.0006925314        0.0001802275
Ti         0.0007422406        0.0006656767       -0.0005881095
Ti        -0.0012157023        0.0006701568       -0.0002817176
Ti        -0.0007116854       -0.0007571769        0.0005937837
Ti        -0.0007098958        0.0006653437       -0.0000023412
Ti        -0.0012028878       -0.0007146830       -0.0002998120
Ti        -0.0006943512       -0.0002521463       -0.0001785288
Ti         0.0006669517        0.0007416278        0.0005894981
Ti         0.0006734640       -0.0002506167       -0.0004083081
Ti        -0.0007411420        0.0007203492       -0.0000002563
Ti         0.0006729127        0.0002961688        0.0004101153
Ti        -0.0007141149        0.0012171332       -0.0003030946
Ti         0.0003008555       -0.0006966119       -0.0001784800
Ti         0.0012260507        0.0006687486        0.0002790800
Ti        -0.0006955690        0.0003000816        0.0001763196
Ti         0.0006698536        0.0012270966       -0.0002772471
Ti         0.0012177717       -0.0007103807        0.0003034245
Ti         0.0002977698        0.0006722762       -0.0004100573
Ti        -0.0011872783       -0.0011850395       -0.0000011668
Ti        -0.0007060057       -0.0007085293        0.0000029186
Ti         0.0006758510       -0.0002538435        0.0001770490
Ti        -0.0002548718        0.0006760691       -0.0001781693
Ti        -0.0007133832       -0.0012197383       -0.0002863795
Ti        -0.0012156587       -0.0007122116        0.0002850137
Ti        -0.0002552757       -0.0002560941       -0.0000017423
Ti         0.0007217399        0.0007209337        0.0000000144
Ti         0.0007413653       -0.0007093760        0.0005909124
Ti        -0.0002566216       -0.0011761065        0.0001107218
Ti        -0.0012062432        0.0006926627        0.0003007634
Ti        -0.0007125075       -0.0002494624        0.0004092124
Ti        -0.0002519460       -0.0007134410       -0.0004111057
Ti         0.0006934971       -0.0012035211       -0.0002989238
Ti        -0.0007093604        0.0007439277       -0.0005937937
Ti        -0.0011746526       -0.0002564344       -0.0001131656
Ti        -0.0011765100        0.0003000269        0.0001133846
Ti        -0.0007103038        0.0012280842        0.0002800034
Ti         0.0003022957       -0.0002548002        0.0000024014
Ti         0.0012164338        0.0006949705       -0.0003055224
Ti        -0.0007133892        0.0002986338       -0.0004147333
Ti        -0.0011871071        0.0011994449        0.0000026662
Ti         0.0011861377       -0.0002547981        0.0001160589
Ti         0.0002994683        0.0006763168        0.0001760259
Ti         0.0006934469        0.0012139656        0.0003040348
Ti        -0.0002557903        0.0003020902       -0.0000013833
Ti        -0.0002543511        0.0011859645       -0.0001146456
Ti         0.0006756118        0.0002998548       -0.0001737814
Ti         0.0011966335       -0.0011855607       -0.0000043227
Ti         0.0002985815       -0.0007119490        0.0004130598
Ti         0.0003015741       -0.0011744304       -0.0001134846
Ti         0.0012282002       -0.0007126927       -0.0002794374
Ti         0.0003017167        0.0003010266        0.0000006778
Ti         0.0011988498        0.0011977003       -0.0000014251
Ti         0.0003053683        0.0011825779        0.0001186572
Ti         0.0011845700        0.0003021049       -0.0001200028
O        -0.0001377147        0.0000430198       -0.0002357711
O         0.0004525465        0.0002910605        0.0000093851
O         0.0000643230        0.0004884070        0.0001147902
O         0.0003116327       -0.0001291531       -0.0003101087
O         0.0004907652        0.0000595147       -0.0001148178
O        -0.0001296851        0.0003118475        0.0003123897
O         0.0002937128        0.0004562871       -0.0000110904
O         0.0000386297       -0.0001397593        0.0002360241
O        -0.0001248632       -0.0006358613       -0.0002736800
O         0.0004904693       -0.0000718643        0.0001179372
O        -0.0003129118        0.0004602869        0.0000180402
O        -0.0001347377       -0.0001186205       -0.0004405057
O         0.0003995094       -0.0006335875       -0.0000347054
O        -0.0001422948       -0.0000514801        0.0002325575
O        -0.0001359593        0.0003898153        0.0001397701
O        -0.0003312953       -0.0001294190        0.0003068558
O        -0.0006346233       -0.0001248621        0.0002712252
O        -0.0000766911        0.0004897576       -0.0001203308
O        -0.0000478592       -0.0001412835       -0.0002362098
O        -0.0006340845        0.0004009355        0.0000317031
O         0.0003822499       -0.0001356348       -0.0001392467
O        -0.0001287813       -0.0003272993       -0.0003053712
O        -0.0001226321       -0.0001368955        0.0004399071
O         0.0004640804       -0.0003172251       -0.0000176237
O        -0.0001202566        0.0001543669       -0.0004388916
O         0.0004041005        0.0006272716        0.0000404563
O         0.0001516790        0.0003880118       -0.0001371875
O         0.0006306232       -0.0001245919       -0.0002678376
O         0.0003908843        0.0001518253        0.0001369442
O        -0.0001243264        0.0006281900        0.0002667605
O         0.0006272651        0.0004045801       -0.0000405193
O         0.0001515388       -0.0001202187        0.0004371576
O        -0.0006017075        0.0000980893        0.0001814712
O         0.0001487411        0.0003105305       -0.0003144154
O         0.0001184588       -0.0006206496        0.0001990378
O         0.0002951168       -0.0004717845        0.0000039660
O         0.0001666074        0.0000390330        0.0002407742
O        -0.0005904071        0.0002999665       -0.0000767071
O         0.0003198357       -0.0006126254       -0.0001084903
O         0.0000657395       -0.0005119601       -0.0001076363
O        -0.0004752436        0.0002936660       -0.0000052038
O        -0.0006205250        0.0001160368       -0.0001973908
O        -0.0006114755        0.0003204737        0.0001100390
O        -0.0005123657        0.0000655913        0.0001059547
O         0.0003004988       -0.0005891662        0.0000774420
O         0.0000393640        0.0001683584       -0.0002445770
O         0.0000995005       -0.0005991722       -0.0001828117
O         0.0003116928        0.0001456559        0.0003168944
O        -0.0005844632       -0.0006124978        0.0001184364
O         0.0001614403       -0.0000500628       -0.0002351343
O        -0.0003365817       -0.0006129550        0.0001147849
O        -0.0001356245       -0.0004003783       -0.0001418651
O         0.0001419436       -0.0006345654        0.0002771113
O        -0.0005998674       -0.0001110970       -0.0001848480
O        -0.0001245844       -0.0006107014       -0.0000630368
O        -0.0003143626       -0.0004819671       -0.0000130349
O        -0.0005114562       -0.0000738064       -0.0001126631
O        -0.0006143046       -0.0005923285       -0.0002027357
O        -0.0006342237       -0.0004166330       -0.0000294170
O        -0.0001287378       -0.0006185646       -0.0002010275
O        -0.0006172669       -0.0001288403        0.0001989031
O        -0.0004161199       -0.0006337887        0.0000294377
O        -0.0000742110       -0.0005104091        0.0001127630
O        -0.0005906439       -0.0006134710        0.0001997206
O        -0.0006104196       -0.0001247239        0.0000635237
O        -0.0004747860       -0.0003127747        0.0000143357
O        -0.0001088353       -0.0006019902        0.0001842371
O        -0.0006379525        0.0001479570       -0.0002780119
O        -0.0004027702       -0.0001355737        0.0001410311
O        -0.0006139096       -0.0003419925       -0.0001137605
O        -0.0006115756       -0.0005832013       -0.0001171701
O        -0.0000530423        0.0001597593        0.0002381957
O         0.0001519017       -0.0003348916        0.0003105818
O        -0.0005736033       -0.0001299161        0.0000519052
O        -0.0001352385        0.0001313753        0.0004410567
O        -0.0003195663       -0.0005878296       -0.0000823352
O        -0.0005872027       -0.0003153530        0.0000834364
O         0.0001350482       -0.0001362859       -0.0004412304
O        -0.0003322324        0.0001527322       -0.0003120962
O        -0.0001288276       -0.0005736175       -0.0000518186
O        -0.0005730288        0.0001481773       -0.0000491249
O         0.0001367924        0.0006315782       -0.0002687497
O         0.0001375908       -0.0006129424        0.0000638844
O         0.0006264578       -0.0004167628        0.0000366670
O         0.0001367680        0.0001508803        0.0004403717
O        -0.0005829280        0.0006022049       -0.0001237321
O         0.0005805665       -0.0006124344       -0.0002058978
O         0.0001527187       -0.0004032094        0.0001405740
O        -0.0004179871        0.0006260805       -0.0000385907
O        -0.0006129815        0.0001392370       -0.0000632371
O        -0.0006114849        0.0005838547        0.0002057830
O        -0.0004005676        0.0001530326       -0.0001411954
O         0.0006066021       -0.0005850958        0.0001229646
O         0.0001504846        0.0001412429       -0.0004406776
O         0.0001462939       -0.0005729391        0.0000521081
O         0.0006298012        0.0001365040        0.0002693391
O         0.0006701599        0.0001199515        0.0001994781
O         0.0005455454        0.0002990460        0.0000734446
O         0.0000905659        0.0005563600        0.0001794565
O         0.0003168972        0.0006630815        0.0001104919
O         0.0005570664        0.0000917585       -0.0001792355
O         0.0006630845        0.0003206544       -0.0001125054
O         0.0003005634        0.0005429734       -0.0000743131
O         0.0001192911        0.0006699531       -0.0001972394
O         0.0006623340       -0.0005920158        0.0002012516
O         0.0005557294       -0.0001022883        0.0001840943
O        -0.0003212077        0.0005467482        0.0000808230
O        -0.0001243492        0.0006613083        0.0000614843
O         0.0005414678       -0.0006174702       -0.0001120735
O         0.0006694603       -0.0001322091       -0.0001994402
O        -0.0001284349        0.0005324535        0.0000567137
O        -0.0003345912        0.0006632601       -0.0001127345
O        -0.0005891253        0.0006635602       -0.0002010363
O        -0.0001090546        0.0005555943       -0.0001836951
O        -0.0001268042        0.0006695469        0.0002002977
O        -0.0006187544        0.0005420825        0.0001118510
O         0.0005329092       -0.0001276901       -0.0000582696
O         0.0006631287       -0.0003341816        0.0001137293
O         0.0006609964       -0.0001238363       -0.0000615531
O         0.0005474106       -0.0003208472       -0.0000807661
O         0.0006598298        0.0001413396        0.0000578234
O         0.0005426850        0.0006095533        0.0001185453
O         0.0001431560        0.0005362548       -0.0000570482
O         0.0005819763        0.0006629907        0.0002031019
O         0.0005359943        0.0001417938        0.0000577370
O         0.0006625893        0.0005820210       -0.0002043718
O         0.0006067213        0.0005438326       -0.0001171485
O         0.0001403377        0.0006605602       -0.0000582856
     192
 i =        2, E =     -5780.9780499818
Ti         0.0000676499        0.0000697370       -0.0000014793
Ti        -0.0005322071       -0.0005336473        0.0000004283
Ti         0.0000668986       -0.0005301690        0.0004979343
Ti        -0.0005329944        0.0000675359       -0.0004983346
Ti         0.0000710332       -0.0010836891        0.0000301865
Ti        -0.0005338162       -0.0000806200        0.0004893224
Ti         0.0005012347       -0.0005350810       -0.0000167118
Ti        -0.0007031564        0.0000661602       -0.0000793495
Ti        -0.0005341391       -0.0010817094       -0.0005251859
Ti         0.0000685027       -0.0000819967        0.0000093752
Ti        -0.0006955953       -0.0005431948       -0.0004306351
Ti         0.0005017427        0.0000678785        0.0005193416
Ti        -0.0010870099        0.0000701541       -0.0000280097
Ti        -0.0000816860       -0.0005323129       -0.0004868953
Ti        -0.0000823051        0.0000704776       -0.0000089187
Ti        -0.0010811905       -0.0005370613        0.0005282057
Ti        -0.0005450187       -0.0006965625        0.0004325001
Ti         0.0000680723        0.0004992845       -0.0005163716
Ti         0.0000662503       -0.0007039002        0.0000826327
Ti        -0.0005346646        0.0005016154        0.0000205713
Ti         0.0000651753        0.0007633563       -0.0000818289
Ti        -0.0005353156        0.0010616169        0.0005171836
Ti         0.0007535173       -0.0005442764        0.0004319713
Ti         0.0010685912        0.0000693586        0.0000183388
Ti        -0.0005453397        0.0007541246       -0.0004345390
Ti         0.0000696288        0.0010678680       -0.0000194909
Ti         0.0010632543       -0.0005354887       -0.0005164552
Ti         0.0007661945        0.0000656422        0.0000781395
Ti        -0.0010711199       -0.0010721993       -0.0000010889
Ti        -0.0000819889       -0.0000848044       -0.0000009707
Ti         0.0005123092       -0.0006954553       -0.0004494383
Ti        -0.0006963505        0.0005132498        0.0004470820
Ti        -0.0000852944       -0.0010901864       -0.0000403423
Ti        -0.0010891626       -0.0000826872        0.0000388252
Ti        -0.0006913074       -0.0006940240       -0.0000022709
Ti         0.0005024590        0.0005005703       -0.0000015130
Ti         0.0004996884       -0.0000797163       -0.0005064838
Ti        -0.0006880090       -0.0010784980       -0.0000769075
Ti        -0.0010823092        0.0005038367       -0.0005450352
Ti        -0.0000819083       -0.0007043053       -0.0000759451
Ti        -0.0007071663       -0.0000823681        0.0000733254
Ti         0.0005036810       -0.0010800138        0.0005431469
Ti        -0.0000818263        0.0005025649        0.0005061822
Ti        -0.0010772077       -0.0006900772        0.0000735382
Ti        -0.0010767788        0.0007471880       -0.0000731184
Ti        -0.0000858026        0.0010676622        0.0000272374
Ti         0.0007502261       -0.0006887991        0.0000029649
Ti         0.0010637785        0.0005038589        0.0005347665
Ti        -0.0000829506        0.0007659984        0.0000715731
Ti        -0.0010741991        0.0010553104        0.0000115509
Ti         0.0010596016       -0.0006901613       -0.0000609928
Ti         0.0007534115        0.0005109685       -0.0004492879
Ti         0.0005036345        0.0010644633       -0.0005331081
Ti        -0.0006894969        0.0007515089        0.0000014313
Ti        -0.0006934251        0.0010581343        0.0000662115
Ti         0.0005127051        0.0007541709        0.0004506912
Ti         0.0010543176       -0.0010706683       -0.0000099017
Ti         0.0007650170       -0.0000827907       -0.0000716105
Ti         0.0007483514       -0.0010757024        0.0000735788
Ti         0.0010683147       -0.0000888125       -0.0000268067
Ti         0.0007512363        0.0007497547       -0.0000006545
Ti         0.0010506464        0.0010521889       -0.0000017384
Ti         0.0007477702        0.0010586577       -0.0000609061
Ti         0.0010606863        0.0007483375        0.0000601223
O         0.0000280637        0.0000292933       -0.0001852834
O         0.0003075788        0.0000115081        0.0004567008
O         0.0000087146        0.0003030719        0.0001701093
O         0.0000238727        0.0000269022        0.0001220373
O         0.0003030224        0.0000074336       -0.0001708626
O         0.0000269952        0.0000252654       -0.0001210900
O         0.0000160186        0.0003083758       -0.0004580510
O         0.0000303190        0.0000272377        0.0001853594
O         0.0000206531        0.0002366968       -0.0005461987
O         0.0003000992        0.0000174140        0.0001810276
O        -0.0000073783        0.0003083592        0.0004851718
O         0.0000919634        0.0000115746       -0.0004796387
O         0.0003139523        0.0002168759        0.0002080299
O         0.0000265879       -0.0000031298        0.0001754285
O         0.0000860557        0.0003030127        0.0001483988
O        -0.0000142428        0.0000282361       -0.0001484846
O         0.0002416195        0.0000206327        0.0005449472
O         0.0000166852        0.0003007345       -0.0001840071
O        -0.0000015176        0.0000272423       -0.0001756898
O         0.0002154049        0.0003124069       -0.0002090866
O         0.0003018172        0.0000914048       -0.0001503849
O         0.0000285746       -0.0000159211        0.0001487155
O         0.0000107434        0.0000872606        0.0004787527
O         0.0003084668       -0.0000067812       -0.0004847853
O         0.0000122457       -0.0000989401       -0.0004841250
O         0.0003120992       -0.0002366368       -0.0001947658
O        -0.0000979493        0.0003030384       -0.0001537549
O        -0.0002604936        0.0000207307       -0.0005337370
O         0.0003048800       -0.0000970069        0.0001534733
O         0.0000208350       -0.0002532005        0.0005329294
O        -0.0002313530        0.0003134772        0.0001947027
O        -0.0001039687        0.0000118954        0.0004831512
O         0.0005612987       -0.0000238503        0.0002290468
O        -0.0000138846        0.0000283288        0.0001205655
O        -0.0000248287       -0.0005569681        0.0003681158
O         0.0000169075       -0.0002849883        0.0004493293
O        -0.0000119748        0.0000312269        0.0001893391
O         0.0005430082       -0.0000103458       -0.0004886181
O         0.0000222053       -0.0005425434       -0.0006342057
O         0.0000133029       -0.0002789072       -0.0001618075
O        -0.0002853686        0.0000134482       -0.0004487904
O        -0.0005568980       -0.0000221073       -0.0003667677
O        -0.0005420872        0.0000285518        0.0006345616
O        -0.0002779733        0.0000092589        0.0001590087
O        -0.0000074592        0.0005436903        0.0004888108
O         0.0000299504       -0.0000118439       -0.0001888114
O        -0.0000212249        0.0005627863       -0.0002292304
O         0.0000270841       -0.0000158203       -0.0001198625
O         0.0005119718        0.0001961645       -0.0002212245
O        -0.0000135759       -0.0000077535       -0.0001751801
O        -0.0000159591       -0.0005418570        0.0006627809
O         0.0000879658       -0.0002830352       -0.0001562581
O        -0.0000043994        0.0002379734        0.0005489398
O         0.0005607414        0.0000486602       -0.0002405108
O         0.0001050399       -0.0005306146       -0.0000035738
O        -0.0000114233       -0.0002853614       -0.0004763793
O        -0.0002763429        0.0000192415       -0.0001714776
O        -0.0005395235        0.0002345261        0.0000487627
O         0.0002173373       -0.0002926428        0.0002160125
O         0.0000512417       -0.0005570029       -0.0003777514
O        -0.0005560607        0.0000441123        0.0003774668
O        -0.0002914067        0.0002213434       -0.0002166394
O         0.0000150216       -0.0002757739        0.0001724388
O         0.0002392341       -0.0005392978       -0.0000490453
O        -0.0005309914        0.0001003873        0.0000037831
O        -0.0002838589       -0.0000100445        0.0004759587
O         0.0000452911        0.0005572434        0.0002405002
O         0.0002414750       -0.0000024739       -0.0005495692
O        -0.0002844215        0.0000901944        0.0001558952
O        -0.0005418758       -0.0000194141       -0.0006632676
O         0.0001893499        0.0005138721        0.0002201404
O        -0.0000046770       -0.0000137331        0.0001753611
O        -0.0000107453       -0.0000148131       -0.0001451818
O         0.0004918996        0.0000891901        0.0001915932
O         0.0000903421        0.0000007629        0.0004797974
O         0.0000122055        0.0005474850       -0.0005172064
O         0.0005474413        0.0000112961        0.0005172894
O         0.0000021711        0.0000904360       -0.0004796381
O        -0.0000165168       -0.0000103379        0.0001458146
O         0.0000851793        0.0004921920       -0.0001903605
O         0.0004956040       -0.0000961468       -0.0001944864
O        -0.0000068034       -0.0002583843       -0.0005342159
O        -0.0001190537       -0.0005310096       -0.0000012233
O        -0.0002347395       -0.0002913116       -0.0002014572
O         0.0000037895       -0.0001013404        0.0004848057
O         0.0005137530       -0.0002096519        0.0002042086
O        -0.0002554791       -0.0005395629        0.0000339700
O        -0.0000959618       -0.0002847733        0.0001615919
O        -0.0002936157       -0.0002386274        0.0002009153
O        -0.0005308480       -0.0001116773        0.0000005333
O        -0.0005388534       -0.0002513670       -0.0000344710
O        -0.0002837240       -0.0000987958       -0.0001620467
O        -0.0002058534        0.0005123578       -0.0002037671
O        -0.0001023096        0.0000056913       -0.0004858247
O        -0.0000929868        0.0004962322        0.0001960059
O        -0.0002571565       -0.0000085740        0.0005330228
O         0.0005469203       -0.0000221987        0.0003711742
O        -0.0005647083       -0.0000117177        0.0004783076
O        -0.0000232833       -0.0005800522        0.0002187350
O         0.0000207629        0.0005317587        0.0006366107
O        -0.0005793337       -0.0000213789       -0.0002184984
O         0.0005311521        0.0000247085       -0.0006358113
O        -0.0000093752       -0.0005658602       -0.0004792657
O        -0.0000244869        0.0005472359       -0.0003688424
O         0.0005282895        0.0002320685       -0.0000517731
O        -0.0005817531        0.0000475176        0.0002306845
O         0.0000138427       -0.0005623894        0.0005085206
O         0.0001037267        0.0005176621       -0.0000023365
O        -0.0005294339        0.0001948662        0.0002281470
O         0.0005481831        0.0000498978       -0.0003783842
O         0.0000904448       -0.0005099657        0.0001970149
O        -0.0000139144        0.0005314426       -0.0006620354
O         0.0002364509        0.0005277774        0.0000515893
O         0.0000436645       -0.0005833646       -0.0002299439
O         0.0000540959        0.0005476208        0.0003809849
O         0.0001936387       -0.0005278356       -0.0002294930
O        -0.0005097560        0.0000902035       -0.0001984649
O         0.0005317174       -0.0000154541        0.0006623401
O         0.0005175755        0.0001004913        0.0000010535
O        -0.0005614042        0.0000213528       -0.0005076809
O         0.0005181459       -0.0001135033       -0.0000091307
O        -0.0005328850       -0.0002130313       -0.0002127726
O        -0.0000923705       -0.0005065543       -0.0002013336
O        -0.0002526442        0.0005284869       -0.0000364702
O        -0.0005056463       -0.0001003129        0.0002018600
O         0.0005283008       -0.0002475760        0.0000363463
O        -0.0002107775       -0.0005322569        0.0002122119
O        -0.0001173261        0.0005188168        0.0000086801
     192
 i =        3, E =     -5780.9783615078
Ti         0.0000300954        0.0000314187       -0.0000008201
Ti        -0.0000604134       -0.0000615011        0.0000003793
Ti         0.0000220952       -0.0000504510        0.0005697775
Ti        -0.0000532502        0.0000225609       -0.0005711660
Ti         0.0000213857       -0.0000815180        0.0002359389
Ti        -0.0000528209       -0.0000118232        0.0005612579
Ti         0.0000577153       -0.0000616475       -0.0000280575
Ti        -0.0004029226        0.0000099931        0.0003327681
Ti        -0.0000665249       -0.0000924202       -0.0007944111
Ti         0.0000306349       -0.0000210351        0.0000087317
Ti        -0.0004042508       -0.0000847121       -0.0009026755
Ti         0.0000500945        0.0000228799        0.0006002448
Ti        -0.0000833023        0.0000208908       -0.0002341553
Ti        -0.0000129945       -0.0000517741       -0.0005596177
Ti        -0.0000218186        0.0000318226       -0.0000085705
Ti        -0.0000927216       -0.0000678523        0.0007960694
Ti        -0.0000854667       -0.0004054773        0.0009042987
Ti         0.0000227249        0.0000480111       -0.0005979555
Ti         0.0000101423       -0.0004041052       -0.0003313247
Ti        -0.0000619788        0.0000574308        0.0000292466
Ti         0.0000092611        0.0004164878        0.0003272239
Ti        -0.0000665768        0.0000687280        0.0007715815
Ti         0.0004152144       -0.0000838192        0.0008982776
Ti         0.0000603141        0.0000207591        0.0002112741
Ti        -0.0000846647        0.0004157014       -0.0008999879
Ti         0.0000214452        0.0000593618       -0.0002126275
Ti         0.0000696065       -0.0000674889       -0.0007708628
Ti         0.0004184756        0.0000099372       -0.0003299392
Ti        -0.0000953555       -0.0000960991       -0.0000001744
Ti        -0.0000220499       -0.0000232478       -0.0000008644
Ti         0.0000799127       -0.0004047335       -0.0009299264
Ti        -0.0004044662        0.0000805895        0.0009292240
Ti        -0.0000115314       -0.0000846642       -0.0002464401
Ti        -0.0000841142       -0.0000099848        0.0002456362
Ti        -0.0004216827       -0.0004228096       -0.0000012314
Ti         0.0000572188        0.0000567693       -0.0000006485
Ti         0.0000488919       -0.0000122695       -0.0005890348
Ti        -0.0004072499       -0.0001140039        0.0001389339
Ti        -0.0000917200        0.0000623009       -0.0008231708
Ti        -0.0000020221       -0.0004035872        0.0003402762
Ti        -0.0004053479       -0.0000020916       -0.0003410386
Ti         0.0000623948       -0.0000920027        0.0008223437
Ti        -0.0000131526        0.0000505452        0.0005882127
Ti        -0.0001131578       -0.0004088780       -0.0001408652
Ti        -0.0001116339        0.0004186155        0.0001340404
Ti        -0.0000129488        0.0000591247        0.0002210467
Ti         0.0004320297       -0.0004199280       -0.0000065904
Ti         0.0000700693        0.0000635423        0.0008002655
Ti        -0.0000027331        0.0004165229       -0.0003376662
Ti        -0.0000964235        0.0000755957        0.0000248732
Ti         0.0000940228       -0.0004076084        0.0001655335
Ti         0.0004154737        0.0000778043       -0.0009242410
Ti         0.0000630620        0.0000709824       -0.0007993357
Ti        -0.0004203265        0.0004328205        0.0000091740
Ti        -0.0004099792        0.0000925739       -0.0001628662
Ti         0.0000787282        0.0004162724        0.0009252980
Ti         0.0000749316       -0.0000951173       -0.0000229326
Ti         0.0004162676       -0.0000036439        0.0003371374
Ti         0.0004191484       -0.0001116862       -0.0001334223
Ti         0.0000602582       -0.0000147215       -0.0002199727
Ti         0.0004328668        0.0004322497       -0.0000006769
Ti         0.0000731978        0.0000739688       -0.0000003524
Ti         0.0004166737        0.0000930024        0.0001571570
Ti         0.0000935468        0.0004183633       -0.0001580426
O        -0.0000896313       -0.0002115553        0.0000400243
O         0.0000136273        0.0000333411        0.0005243091
O        -0.0002216734        0.0000137001       -0.0000319995
O         0.0000586474       -0.0000906604        0.0005795352
O         0.0000133841       -0.0002214994        0.0000312332
O        -0.0000903674        0.0000578429       -0.0005799643
O         0.0000350877        0.0000128581       -0.0005243922
O        -0.0002105502       -0.0000892862       -0.0000395392
O        -0.0000827933        0.0003330843       -0.0003031507
O         0.0000138560        0.0002478028       -0.0000323200
O        -0.0000220927        0.0000118680        0.0005413473
O         0.0002630033       -0.0000795873       -0.0002447338
O         0.0000294362        0.0003156689        0.0003966149
O        -0.0000890165        0.0002378688       -0.0000379412
O         0.0002516634        0.0000383251        0.0003580370
O        -0.0000453389       -0.0000908905       -0.0005966823
O         0.0003355834       -0.0000831687        0.0003033824
O         0.0002475050        0.0000138707        0.0000314768
O         0.0002393375       -0.0000888696        0.0000381822
O         0.0003148935        0.0000286322       -0.0003966289
O         0.0000395612        0.0002557171       -0.0003593697
O        -0.0000915070       -0.0000473128        0.0005967444