     192
 i =        1, E =     -5780.9775017535
Ti        -0.0006978473       -0.0007037627        0.0000016620
Ti         1.8927145666        1.8927245266        4.8075075631
Ti        -0.0006684169        1.8927212712        2.4026351439
Ti         1.8927330512       -0.0006716135        7.2123771395
Ti        -0.0006469999        3.7811839756        0.0016967468
Ti         1.8927470065       13.2394819284        4.8063742850
Ti        11.3461240060        1.8927160154        2.4037177947
Ti         5.6738653992       -0.0006377277        7.2133664612
Ti         1.8926852320        3.7812187858        7.2106904513
Ti        -0.0006937447       13.2394829973        2.4037774566
Ti         5.6738773968        1.8926911895        4.8065227612
Ti        11.3460913359       -0.0006778865       -0.0010945955
Ti         3.7811876135       -0.0006424550       -0.0016922345
Ti        13.2394679183        1.8927355330        4.8086383576
Ti        13.2394952683       -0.0006997698        7.2112572717
Ti         3.7812178125        1.8927015685        2.4043300975
Ti         1.8926845554        5.6738762180        4.8084895915
Ti        -0.0006783098       11.3461040659        0.0010866403
Ti        -0.0006427303        5.6738631493        2.4016418200
Ti         1.8927239609       11.3461198531        7.2112953765
Ti        -0.0006356453        7.5650812295        0.0020939397
Ti         1.8927172135        9.4577034837        4.8080549352
Ti         7.5650829008        1.8926859583        2.4047290845
Ti         9.4577149589       -0.0006505401        7.2129366315
Ti         1.8926851128        7.5650780512        7.2102987591
Ti        -0.0006413806        9.4577091287        2.4020859419
Ti         9.4576961837        1.8927097102        4.8069670023
Ti         7.5650661421       -0.0006336782       -0.0020905867
Ti         3.7812156808        3.7812196098        0.0000012382
Ti        13.2394944162       13.2395049924        4.8075093202
Ti        11.3461657499        5.6738715473        2.4027435060
Ti         5.6738772831       11.3461574341        7.2122791578
Ti        13.2394440893        3.7812035849        7.2095662596
Ti         3.7812017423       13.2394376105        2.4054635295
Ti         5.6738779213        5.6738842121        4.8075136069
Ti        11.3461170004       11.3461239745        0.0000006671
Ti        11.3461085078       13.2394616967        2.4048642661
Ti         5.6738644271        3.7812191518        7.2116855174
Ti         3.7812158247       11.3461567972       -0.0006022948
Ti        13.2394392411        5.6738704191        4.8096326761
Ti         5.6738866406       13.2394484800        4.8053984872
Ti        11.3461419665        3.7812088510        0.0005991857
Ti        13.2394675062       11.3460898989        7.2101629703
Ti         3.7812144579        5.6738702609        2.4033453401
Ti         3.7812181092        7.5650857011        0.0004035753
Ti        13.2394640788        9.4577231297        4.8091910205
Ti         7.5650834989        5.6738657095        2.4037367611
Ti         9.4576950593       11.3461390384        7.2118395038
Ti        13.2394380705        7.5650735820        7.2091702852
Ti         3.7812198564        9.4576790041        2.4037816855
Ti         9.4576989870        5.6738887952        4.8079522460
Ti         7.5650807118       11.3461668870       -0.0009965338
Ti        11.3461540850        9.4576933951        2.4031794825
Ti         5.6738657485        7.5650790352        7.2112728895
Ti         5.6738910713        9.4577088624        4.8070616217
Ti        11.3461593100        7.5650777864        0.0009902565
Ti         9.4576871673        3.7812123198        7.2112376105
Ti         7.5650802505       13.2394357044        2.4058526486
Ti         7.5650722586        3.7812100066       -0.0004082818
Ti         9.4577217614       13.2394681928        4.8058286872
Ti         7.5650752681        7.5650805201        0.0000009652
Ti         9.4577103028        9.4577105020        4.8075107145
Ti         7.5650757025        9.4576941608        2.4041795097
Ti         9.4576886003        7.5650730948        7.2108436235
O         0.0012884686        0.0026659379        1.9925616741
O         1.8844427177        1.8897787537        6.7982515481
O         0.0026427133        1.8842395093        4.3954925306
O         1.8897123589        0.0012844772        9.2027657570
O         1.8842302853        0.0026550316        5.2195274248
O         0.0012855437        1.8897102897        0.4122468716
O         1.8897694444        1.8844241468        2.8167735225
O         0.0026748938        0.0012995262        7.6224596780
O         0.0012789234        3.7816720892        1.9925073292
O         1.8842406584       13.2361064063        6.7992344872
O        11.3490498059        1.8844063254        4.3944614058
O         5.6727820142        0.0012714322        9.2041349116
O         1.8846480284        3.7816901684        5.2194394246
O         0.0013126732       13.2360786084        0.4112067680
O         5.6728072658        1.8847181529        2.8152942481
O        11.3491074761        0.0012803571        7.6235340483
O         3.7816689873        0.0012797935        7.6225160997
O        13.2361138689        1.8842411277        2.8157909363
O        13.2360721127        0.0013052523        9.2038251791
O         3.7816932842        1.8846497988        4.3955869171
O         1.8847547665        5.6727950212        6.7997274693
O         0.0012779853       11.3491026917        1.9914818634
O         0.0012894779        5.6727967736        0.4108830745
O         1.8843905459       11.3490619389        5.2205524660
O         0.0012753375        7.5661921928        1.9928583031
O         1.8846378063        9.4572186291        6.7993142346
O         7.5661913388        1.8847275300        4.3959579435
O         9.4572295743        0.0012764168        9.2037568839
O         1.8847090512        7.5661878631        5.2190697692
O         0.0012774019        9.4572262027        0.4112682822
O         9.4572111792        1.8846311203        2.8157067278
O         7.5662067682        0.0012765873        7.6221696360
O         3.7750147830        0.0026227815        1.9912586478
O        13.2372062329        1.8897131504        6.7990109137
O         0.0026100681        5.6705466761        4.3947084931
O         1.8897659310       11.3542573522        9.2020334139
O        13.2371510062        0.0026726605        5.2186963792
O         3.7751246165        1.8898309329        0.4134227740
O         1.8898431112        5.6705816599        2.8174371721
O         0.0026378694       11.3544726329        7.6232502670
O        11.3542737962        1.8897700492        0.4129841638
O         5.6705268815        0.0026148753        5.2202995259
O         5.6705849028        1.8898363796        6.7975739573
O        11.3544713843        0.0026392689        1.9917751827
O         1.8898261724        3.7751168420        9.2015979918
O         0.0026739679       13.2371432564        4.3963325734
O         0.0026162055        3.7749973624        7.6237659933
O         1.8897128983       13.2372265477        2.8160017854
O         3.7752189542        3.7817053095        1.9915510336
O        13.2371785131       13.2360820808        6.8000513728
O        11.3489827067        5.6705556230        4.3937908913
O         5.6728016857       11.3539512844        9.2034970084
O        13.2372126260        3.7816737440        5.2187588677
O         3.7750089001       13.2361412941        0.4125122494
O         5.6728040582        5.6705826284        2.8156833714
O        11.3490586700       11.3543045515        7.6242830521
O        11.3544632556       13.2361056139        0.4120024832
O         5.6705621021        3.7817165652        5.2199233479
O         3.7816948843       11.3540480267        7.6231715597
O        13.2361467571        5.6705595121        2.8165649241
O         5.6705639003       13.2361554555        6.7984639959
O        11.3540402826        3.7816828820        1.9918490161
O        13.2361088661       11.3544563284        9.2030212218
O         3.7817043218        5.6705743629        4.3951112270
O         5.6705860546        5.6728137278        6.7993449739
O        11.3542686314       11.3490579149        1.9907379361
O        13.2361399526        3.7750287660        9.2025141070
O         3.7816788204       13.2371819425        4.3962662392
O        11.3539658696        5.6727946122        0.4115287016
O         5.6705391946       11.3489953420        5.2212324227
O         3.7817110234        3.7752068343        7.6234741624
O        13.2360839263       13.2371856719        2.8149562324
O        13.2371845574       11.3491110555        5.2197783837
O         3.7752629933        5.6728046137        0.4117566244
O         5.6727948401       13.2372535837        2.8146503326
O        11.3490030543        3.7750948450        7.6247168194
O         3.7750948033       11.3489970656        1.9903041200
O        13.2372335599        5.6727927675        6.8003755932
O        11.3491073636       13.2371787875        4.3952483505
O         5.6728106754        3.7752612581        9.2032677242
O         3.7752453837        7.5661737449        1.9919790558
O        13.2372426430        9.4572258797        6.7999938542
O         7.5661967169        5.6705613582        4.3955691545
O         9.4572136926       11.3540436873        9.2030882092
O        13.2372204198        7.5662002812        5.2184189485
O         3.7752046634        9.4572058655        0.4122388562
O         9.4572051377        5.6705863540        2.8161945148
O         7.5661866562       11.3539708526        7.6228040699
O        11.3540562448        9.4572216652        0.4119388460
O         5.6705578995        7.5661834169        5.2194475230
O         5.6705885862        9.4571940496        6.7988227994
O        11.3539571821        7.5661924556        1.9922165688
O         9.4571875194        3.7752196053        9.2027824954
O         7.5662044774       13.2371953072        4.3966071388
O         7.5661719374        3.7752426777        7.6230277325
O         9.4572295222       13.2372496489        2.8150287649
O         7.5686825738        0.0026062565        1.9909694223
O         9.4638338730        1.8898263045        6.7978552707
O         0.0026368300        9.4639284571        4.3950213562
O         1.8898499567        7.5686436439        9.2013456633
O         9.4639231193        0.0026304741        5.2199991068
O         7.5686565928        1.8898396302        0.4136827254
O         1.8898264034        9.4638486119        2.8171700552
O         0.0026111022        7.5686796786        7.6240443709
O         7.5686302454        3.7817116078        1.9913568104
O         9.4639395507       13.2361284550        6.7987572161
O        11.3490099867        9.4638212679        4.3940649414
O         5.6728037589        7.5686464019        9.2031027368
O         9.4637199434        3.7817125982        5.2197133944
O         7.5686596053       13.2361533301        0.4127839585
O         5.6727947950        9.4636814787        2.8155093067
O        11.3489784874        7.5686574182        7.6249630193
O         3.7817039520        7.5686379740        7.6236597645
O        13.2361455524        9.4639447642        2.8162592793
O        13.2361426417        7.5686646833        9.2022294320
O         3.7817175768        9.4637097034        4.3953090297
O         9.4636774606        5.6727974577        6.7995124656
O         7.5686599506       11.3489815853        1.9900501816
O         7.5686484249        5.6728085060        0.4119164300
O         9.4638154172       11.3490014596        5.2209557381
O         7.5686400870        7.5661823688        1.9918378320
O         9.4637296202        9.4571985874        6.7990376882
O         7.5661765381        9.4636525810        4.3957376345
O         9.4571998212        7.5686429591        9.2025974813
O         9.4636481927        7.5662004174        5.2192818636
O         7.5686415597        9.4571940851        0.4124296143
O         9.4571985451        9.4637225592        2.8159857289
O         7.5661873437        7.5686362308        7.6231884087
     192
 i =        2, E =     -5780.9780499818
Ti         0.0005813262        0.0005702419        0.0000033572
Ti         1.8904668526        1.8904759930        4.8075076621
Ti         0.0005763660        1.8903872911        2.4016280517
Ti         1.8903983652        0.0005767596        7.2133909570
Ti         0.0005832538        3.7785762893        0.0027923006
Ti         1.8904134992       13.2380503353        4.8053567744
Ti        11.3482873558        1.8904619451        2.4036908091
Ti         5.6728530318        0.0005824968        7.2153345388
Ti         1.8905523406        3.7786338772        7.2105848453
Ti         0.0005832648       13.2380265756        2.4037854686
Ti         5.6728826645        1.8905967987        4.8055738546
Ti        11.3483411857        0.0005655958       -0.0020779774
Ti         3.7785832047        0.0005883739       -0.0027870837
Ti        13.2380455172        1.8904068332        4.8096591704
Ti        13.2380362327        0.0005768976        7.2112448612
Ti         3.7786390144        1.8905631172        2.4044322876
Ti         1.8905923038        5.6728888569        4.8094407756
Ti         0.0005679933       11.3483482578        0.0020680815
Ti         0.0005773395        5.6728550924        2.3996735512
Ti         1.8904694148       11.3482877019        7.2113193314
Ti         0.0005822467        7.5662286454        0.0040455134
Ti         1.8905735832        9.4603138826        4.8081118456
Ti         7.5662203505        1.8905903549        2.4056588624
Ti         9.4603431725        0.0005870101        7.2139888756
Ti         1.8905912585        7.5662122641        7.2093648091
Ti         0.0005932766        9.4603435764        2.4010383522
Ti         9.4603090732        1.8905714727        4.8069080448
Ti         7.5662165145        0.0005822538       -0.0040387102
Ti         3.7786898563        3.7786959172        0.0000019542
Ti        13.2380451186       13.2380521283        4.8075190816
Ti        11.3481756506        5.6728757615        2.4017569676
Ti         5.6728810903       11.3481688415        7.2132657915
Ti        13.2380371273        3.7785932299        7.2084595048
Ti         3.7785991032       13.2380342253        2.4065707520
Ti         5.6729244079        5.6729334586        4.8075115549
Ti        11.3482841358       11.3482920458        0.0000026983
Ti        11.3483592133       13.2380410600        2.4058522973
Ti         5.6728993124        3.7787047145        7.2124478876
Ti         3.7786273867       11.3482019443       -0.0007326232
Ti        13.2380540645        5.6728635305        4.8116122793
Ti         5.6728762311       13.2380570079        4.8034156793
Ti        11.3481905690        3.7786212482        0.0007342586
Ti        13.2380469371       11.3483400406        7.2091704741
Ti         3.7786992177        5.6729074269        2.4025769594
Ti         3.7786981342        7.5661826524        0.0011520107
Ti        13.2380579161        9.4603562127        4.8102512818
Ti         7.5661758513        5.6729118598        2.4037185039
Ti         9.4603078273       11.3481988346        7.2119220456
Ti        13.2380518707        7.5662262335        7.2072043089
Ti         3.7786992372        9.4602366973        2.4038218666
Ti         9.4602442574        5.6729238791        4.8087596383
Ti         7.5662150170       11.3481749621       -0.0019637081
Ti        11.3482079927        9.4603019525        2.4030889127
Ti         5.6729130393        7.5661725863        7.2112886344
Ti         5.6729265180        9.4602524885        4.8062479494
Ti        11.3481683363        7.5662116634        0.0019577557
Ti         9.4602341904        3.7786901261        7.2111916492
Ti         7.5662365953       13.2380509058        2.4078162900
Ti         7.5661736870        3.7786958666       -0.0011555087
Ti         9.4603588365       13.2380628158        4.8047692368
Ti         7.5661648471        7.5661719815        0.0000010346
Ti         9.4602657407        9.4602609301        4.8075105878
Ti         7.5661877389        9.4602355176        2.4049707030
Ti         9.4602309479        7.5661823285        7.2100491400
O         0.0010747075        0.0017589699        1.9921812965
O         1.8840701332        1.8890482864        6.7971475605
O         0.0018029882        1.8839885380        4.3951835553
O         1.8889904273        0.0011193884        9.2016355000
O         1.8839892839        0.0018068286        5.2198405264
O         0.0011176928        1.8889865664        0.4133843875
O         1.8890396887        1.8840655259        2.8178755480
O         0.0017600492        0.0010784574        7.6228409539
O         0.0011390723        3.7787461056        1.9926956971
O         1.8840024054       13.2367855621        6.7989126457
O        11.3496727505        1.8840637516        4.3933328565
O         5.6715761320        0.0011660309        9.2047552143
O         1.8840510268        3.7788179764        5.2192202042
O         0.0010823297       13.2368186304        0.4115964523
O         5.6716151913        1.8840948432        2.8146613815
O        11.3497184618        0.0011116878        7.6246993384
O         3.7787391283        0.0011404215        7.6223244520
O        13.2367851175        1.8839988240        2.8161149342
O        13.2368189319        0.0010775492        9.2034242804
O         3.7788199558        1.8840621021        4.3957978792
O         1.8841025862        5.6715937412        6.8003658963
O         0.0011121924       11.3497217512        1.9903180722
O         0.0011681003        5.6715905236        0.4102648901
O         1.8840635110       11.3496751387        5.2216812444
O         0.0011618707        7.5675353808        1.9934532635
O         1.8840635819        9.4601230052        6.7994866296
O         7.5675203464        1.8840977276        4.3965688809
O         9.4601919911        0.0011369799        9.2039026272
O         1.8840880592        7.5675178732        5.2184598907
O         0.0011401550        9.4601758087        0.4111248400
O         9.4601094580        1.8840568751        2.8155348332
O         7.5675476088        0.0011638256        7.6215760488
O         3.7679713577        0.0018798788        1.9911049324
O        13.2373085715        1.8889837823        6.7978673762
O         0.0019117703        5.6653752022        4.3941065281
O         1.8890346053       11.3544292101        9.2009307600
O        13.2373348593        0.0017616303        5.2190804958
O         3.7682003457        1.8891582034        0.4143434739
O         1.8891965643        5.6654729548        2.8187517903
O         0.0017942701       11.3545025767        7.6235585434
O        11.3544322778        1.8890390617        0.4140808650
O         5.6653470414        0.0019085068        5.2209015172
O         5.6654844369        1.8891844797        6.7962616112
O        11.3544980823        0.0017996522        1.9914658083
O         1.8891516161        3.7681966515        9.2006761150
O         0.0017623061       13.2373338684        4.3959354833
O         0.0018751121        3.7679611373        7.6239136829
O         1.8889875037       13.2373193958        2.8171489581
O         3.7683734360        3.7789358358        1.9920185572
O        13.2373437620       13.2368306333        6.7996546722
O        11.3495329758        5.6654333903        4.3924400710
O         5.6716011378       11.3544117953        9.2041449073
O        13.2372751972        3.7787494377        5.2185745974
O         3.7679737620       13.2367138648        0.4126755141
O         5.6716485715        5.6654839794        2.8149391751
O        11.3496844650       11.3544366453        7.6254057522
O        11.3544919039       13.2367795766        0.4123157488
O         5.6654334515        3.7789988488        5.2196698744
O         3.7788156179       11.3544551394        7.6229500076
O        13.2366838278        5.6654061553        2.8171784529
O         5.6654202249       13.2366980823        6.7978434870
O        11.3544468894        3.7788018364        1.9920742199
O        13.2367863123       11.3544882277        9.2027037953
O         3.7789836273        5.6654563602        4.3953564638
O         5.6654906402        5.6716639388        6.8000890043
O        11.3544274816       11.3496843012        1.9896205978
O        13.2367184060        3.7679897602        9.2023469607
O         3.7787425738       13.2372667053        4.3964476899
O        11.3544185855        5.6715937047        0.4108807729
O         5.6654037818       11.3495386475        5.2225858162
O         3.7789521919        3.7683634118        7.6230131308
O        13.2368256173       13.2373439818        2.8153651297
O        13.2372965149       11.3497196548        5.2209493290
O         3.7685021806        5.6716366604        0.4108807359
O         5.6715920029       13.2372709235        2.8140310298
O        11.3495720369        3.7681725503        7.6256724953
O         3.7681764109       11.3495775337        1.9893527258
O        13.2372639184        5.6715833461        6.8009939029
O        11.3497248797       13.2372929773        4.3940732858
O         5.6716508302        3.7684997437        9.2041413189
O         3.7684802058        7.5674727169        1.9928303958
O        13.2372879343        9.4601891660        6.8001348966
O         7.5674823899        5.6654398923        4.3962860075
O         9.4601156469       11.3544479946        9.2032637335
O        13.2372553125        7.5675391728        5.2178267775
O         3.7683618957        9.4599883481        0.4118217314
O         9.4599466344        5.6654799600        2.8159961497
O         7.5675156844       11.3544232439        7.6221813104
O        11.3544587912        9.4601262717        0.4117577276
O         5.6654346240        7.5674624210        5.2187321178
O         5.6654888805        9.4599376297        6.7990185834
O        11.3544191245        7.5675234840        1.9928381864
O         9.4599759579        3.7683706488        9.2031945966
O         7.5675427832       13.2372457308        4.3972010963
O         7.5674613249        3.7684768056        7.6221806894
O         9.4601891975       13.2372963290        2.8148923068
O         7.5743051206        0.0019058971        1.9903770125
O         9.4705203969        1.8891551453        6.7969434341
O         0.0018817213        9.4707244817        4.3948834007
O         1.8891972178        7.5742070065        9.2000409904
O         9.4707210877        0.0018775951        5.2201374921
O         7.5742258746        1.8891893738        0.4149784462
O         1.8891543557        9.4705264451        2.8180796516
O         0.0019119886        7.5742996761        7.6246371858
O         7.5741842982        3.7789938379        1.9916163855
O         9.4707367841       13.2367182829        6.7986072429
O        11.3495771691        9.4705092565        4.3931221898
O         5.6716463993        7.5742023005        9.2038507463
O         9.4703301685        3.7789364911        5.2192455366
O         7.5742676191       13.2366851556        0.4133903777
O         5.6716328610        9.4702204786        2.8146282460
O        11.3495296933        7.5742281453        7.6263051790
O         3.7789865878        7.5742027193        7.6233999980
O        13.2367262595        9.4707434779        2.8164076244
O        13.2366788197        7.5742755238        9.2016183956
O         3.7789378606        9.4703190894        4.3957745283
O         9.4702172549        5.6716370214        6.8003877337
O         7.5742310393       11.3495342665        1.9887099870
O         7.5742034543        5.6716582469        0.4111702913
O         9.4705049041       11.3495620260        5.2218932772
O         7.5741844561        7.5674669577        1.9925540127
O         9.4703513716        9.4600035907        6.7994588207
O         7.5674604010        9.4702012936        4.3965867878
O         9.4599423440        7.5742065458        9.2027962116
O         9.4701934803        7.5674911270        5.2184316183
O         7.5742021740        9.4599315427        0.4122282068
O         9.4599961960        9.4703479516        2.8155697379
O         7.5674756817        7.5741831642        7.6224729499
     192
 i =        3, E =     -5780.9783615078
Ti         0.0006872167        0.0006789756        0.0000020125
Ti         1.8888495027        1.8888573933        4.8075064330
Ti         0.0007124583        1.8887843383        2.4020628144
Ti         1.8887974295        0.0007098468        7.2129576527
Ti         0.0007530946        3.7756742428        0.0028898321
Ti         1.8888118006       13.2378294160        4.8057900219
Ti        11.3498291206        1.8888443418        2.4036956548
Ti         5.6712124897        0.0007791881        7.2159749520
Ti         1.8889274251        3.7757412698        7.2100167912
Ti         0.0006906281       13.2378362603        2.4037860696
Ti         5.6712420400        1.8890035636        4.8044562576
Ti        11.3498669017        0.0007005903       -0.0016480320
Ti         3.7756796983        0.0007580082       -0.0028839195
Ti        13.2378258844        1.8888048843        4.8092263511
Ti        13.2378482962        0.0006849701        7.2112450721
Ti         3.7757487522        1.8889380105        2.4050004617
Ti         1.8889990899        5.6712496629        4.8105576482
Ti         0.0007033257       11.3498756794        0.0016363321
Ti         0.0007751885        5.6712148712        2.3990345953
Ti         1.8888532200       11.3498272516        7.2113188248
Ti         0.0007812673        7.5680085757        0.0046496425
Ti         1.8889475046        9.4631842998        4.8086489661
Ti         7.5679993314        1.8889969272        2.4067401524
Ti         9.4632254728        0.0007528363        7.2140555470
Ti         1.8889966189        7.5679896475        7.2082814812
Ti         0.0007563399        9.4632271949        2.4009719093
Ti         9.4631799807        1.8889486780        4.8063702693
Ti         7.5679979993        0.0007805248       -0.0046431230
Ti         3.7758441577        3.7758494625       -0.0000002276
Ti        13.2378581891       13.2378630960        4.8075202360
Ti        11.3496938575        5.6712393169        2.4006421837
Ti         5.6712427508       11.3496859756        7.2143779771
Ti        13.2377790282        3.7756883129        7.2083624791
Ti         3.7756953923       13.2377772762        2.4066656644
Ti         5.6712990844        5.6713073992        4.8075087601
Ti        11.3498248525       11.3498309725        0.0000011580
Ti        11.3498838588       13.2378227071        2.4054224342
Ti         5.6712602744        3.7758908131        7.2129556472
Ti         3.7757341677       11.3497513103       -0.0012957313
Ti        13.2377707558        5.6712212471        4.8122487319
Ti         5.6712312035       13.2377732803        4.8027754148
Ti        11.3497400806        3.7757300512        0.0012964437
Ti        13.2378273920       11.3498636865        7.2096024788
Ti         3.7758841969        5.6712673048        2.4020667329
Ti         3.7758842252        7.5679612119        0.0016326824
Ti        13.2378012368        9.4632396082        4.8103170760
Ti         7.5679366843        5.6712909996        2.4036916568
Ti         9.4631773848       11.3497453415        7.2124544590
Ti        13.2377677241        7.5680082233        7.2066000488
Ti         3.7758496340        9.4630608387        2.4038528080
Ti         9.4630330293        5.6712801869        4.8093044974
Ti         7.5679899165       11.3496956702       -0.0030426978
Ti        11.3497536598        9.4631717053        2.4025557997
Ti         5.6712916063        7.5679343696        7.2113168236
Ti         5.6712813465        9.4630416389        4.8057041785
Ti        11.3496899159        7.5679864302        0.0030356710
Ti         9.4630574169        3.7758438931        7.2111599426
Ti         7.5680187726       13.2377670337        2.4084215478
Ti         7.5679543056        3.7758848328       -0.0016361045
Ti         9.4632409787       13.2378109818        4.8047026132
Ti         7.5679266081        7.5679340575        0.0000001752
Ti         9.4630891564        9.4630871373        4.8075089973
Ti         7.5679700056        9.4630237356        2.4054859350
Ti         9.4630211431        7.5679639185        7.2095335052
O         0.0014031136        0.0016679812        1.9916023340
O         1.8845735801        1.8876175367        6.7972640361
O         0.0016816846        1.8844677866        4.3959174345
O         1.8875545067        0.0014574084        9.2004937176
O         1.8844699611        0.0016821544        5.2191069272
O         0.0014555146        1.8875547964        0.4145299083
O         1.8876142742        1.8845753528        2.8177555386
O         0.0016695374        0.0014012371        7.6234174328
O         0.0014467596        3.7766530611        1.9911870535
O         1.8844677062       13.2368318288        6.7996733206
O        11.3510373234        1.8845757220        4.3935200769
O         5.6708688215        0.0014287298        9.2043519976
O         1.8845553113        3.7766984568        5.2194182210
O         0.0014002668       13.2368400884        0.4121470978
O         5.6709057221        1.8845343637        2.8137730461
O        11.3510956766        0.0014560608        7.6257775331
O         3.7766498858        0.0014482454        7.6238296343
O        13.2368325331        1.8844667506        2.8153498112
O        13.2368399125        0.0013991781        9.2028700438
O         3.7767006331        1.8845602665        4.3955968025
O         1.8845313643        5.6708850465        6.8012516263
O         0.0014592019       11.3510987871        1.9892398915