 DBCSR| CPU Multiplication driver                                           XSMM (U)
 DBCSR| Multrec recursion limit                                              512 (U)
 DBCSR| Multiplication stack size                                           1000 (D)
 DBCSR| Maximum elements for images                                    UNLIMITED (U)
 DBCSR| Multiplicative factor virtual images                                   1 (U)
 DBCSR| Use multiplication densification                                       T (D)
 DBCSR| Multiplication size stacks                                             3 (U)
 DBCSR| Use memory pool for CPU allocation                                     F (U)
 DBCSR| Number of 3D layers                                               SINGLE (U)
 DBCSR| Use MPI memory allocation                                              F (U)
 DBCSR| Use RMA algorithm                                                      F (U)
 DBCSR| Use Communication thread                                               T (U)
 DBCSR| Communication thread load                                             87 (D)
 DBCSR| MPI: My process id                                                     0
 DBCSR| MPI: Number of processes                                             128
 DBCSR| OMP: Current number of threads                                         1
 DBCSR| OMP: Max number of threads                                             1
 DBCSR| Split modifier for TAS multiplication algorithm                  1.0E+00 (U)


  **** **** ******  **  PROGRAM STARTED AT               2025-06-22 05:25:34.978
 ***** ** ***  *** **   PROGRAM STARTED ON                             nid005636
 **    ****   ******    PROGRAM STARTED BY                                cahart
 ***** **    ** ** **   PROGRAM PROCESS ID                                249495
  **** **  *******  **  PROGRAM STARTED IN /mnt/lustre/a2fs-work2/work/e05/e05/c
                                           ahart/postdoc2/work/group/tio2/anatas
                                           e/cell-441/geo-opt/mp-390/neutral-fro
                                           m-hole/pbe-u-o/u-2.6

 CP2K| version string:                                       CP2K version 2024.3
 CP2K| source code revision number:                                  git:6712648
 CP2K| cp2kflags: omp libint fftw3 libxc libgrpp elpa parallel scalapack cosma x
 CP2K|            smm plumed2 spglib mkl sirius libvori libbqb libvdwxc hdf5
 CP2K| is freely available from                            https://www.cp2k.org/
 CP2K| Program compiled at                       Thu 12 Sep 2024 10:20:47 AM BST
 CP2K| Program compiled on                                                  ln04
 CP2K| Program compiled for                                                local
 CP2K| Data directory path    /mnt/lustre/a2fs-work1/work/y07/shared/apps/core/c
 CP2K| Input file name                                                 input.inp

 GLOBAL| Force Environment number                                              1
 GLOBAL| Basis set file name                                        BASIS_MOLOPT
 GLOBAL| Potential file name                                      GTH_POTENTIALS
 GLOBAL| MM Potential file name                                     MM_POTENTIAL
 GLOBAL| Coordinate file name                                         system.xyz
 GLOBAL| Method name                                                        CP2K
 GLOBAL| Project name                                                       tio2
 GLOBAL| Run type                                                         ENERGY
 GLOBAL| FFT library                                                       FFTW3
 GLOBAL| Diagonalization library                                            ELPA
 GLOBAL| DGEMM library                                                      BLAS
 GLOBAL| Minimum number of eigenvectors for ELPA usage                        16
 GLOBAL| Orthonormality check for eigenvectors                          DISABLED
 GLOBAL| Matrix multiplication library                                     COSMA
 GLOBAL| All-to-all communication in single precision                          F
 GLOBAL| FFTs using library dependent lengths                                  F
 GLOBAL| Grid backend                                                       AUTO
 GLOBAL| Global print level                                               MEDIUM
 GLOBAL| MPI I/O enabled                                                       T
 GLOBAL| Total number of message passing processes                           128
 GLOBAL| Number of threads for this process                                    1
 GLOBAL| This output is from process                                           0
 GLOBAL| Stack size for threads created by OpenMP (OMP_STACKSIZE)        default
 GLOBAL| CPU model name                          AMD EPYC 7742 64-Core Processor
 GLOBAL| CPUID                                                              1002

 MEMORY| system memory details [Kb]
 MEMORY|                        rank 0           min           max       average
 MEMORY| MemTotal            263341976     263341976     263341976     263341976
 MEMORY| MemFree             233841524     233841524     233844796     233842104
 MEMORY| Buffers                     0             0             0             0
 MEMORY| Cached                1817152       1816076       1817152       1816962
 MEMORY| Slab                  6490788       6490644       6490788       6490762
 MEMORY| SReclaimable           915260        915228        915260        915253
 MEMORY| MemLikelyFree       236573936     236573936     236576380     236574320


 *** Fundamental physical constants (SI units) ***

 *** Literature: B. J. Mohr and B. N. Taylor,
 ***             CODATA recommended values of the fundamental physical
 ***             constants: 2006, Web Version 5.1
 ***             http://physics.nist.gov/constants

 Speed of light in vacuum [m/s]                             2.99792458000000E+08
 Magnetic constant or permeability of vacuum [N/A**2]       1.25663706143592E-06
 Electric constant or permittivity of vacuum [F/m]          8.85418781762039E-12
 Planck constant (h) [J*s]                                  6.62606896000000E-34
 Planck constant (h-bar) [J*s]                              1.05457162825177E-34
 Elementary charge [C]                                      1.60217648700000E-19
 Electron mass [kg]                                         9.10938215000000E-31
 Electron g factor [ ]                                     -2.00231930436220E+00
 Proton mass [kg]                                           1.67262163700000E-27
 Fine-structure constant                                    7.29735253760000E-03
 Rydberg constant [1/m]                                     1.09737315685270E+07
 Avogadro constant [1/mol]                                  6.02214179000000E+23
 Boltzmann constant [J/K]                                   1.38065040000000E-23
 Atomic mass unit [kg]                                      1.66053878200000E-27
 Bohr radius [m]                                            5.29177208590000E-11

 *** Conversion factors ***

 [u] -> [a.u.]                                              1.82288848426455E+03
 [Angstrom] -> [Bohr] = [a.u.]                              1.88972613288564E+00
 [a.u.] = [Bohr] -> [Angstrom]                              5.29177208590000E-01
 [a.u.] -> [s]                                              2.41888432650478E-17
 [a.u.] -> [fs]                                             2.41888432650478E-02
 [a.u.] -> [J]                                              4.35974393937059E-18
 [a.u.] -> [N]                                              8.23872205491840E-08
 [a.u.] -> [K]                                              3.15774647902944E+05
 [a.u.] -> [kJ/mol]                                         2.62549961709828E+03
 [a.u.] -> [kcal/mol]                                       6.27509468713739E+02
 [a.u.] -> [Pa]                                             2.94210107994716E+13
 [a.u.] -> [bar]                                            2.94210107994716E+08
 [a.u.] -> [atm]                                            2.90362800883016E+08
 [a.u.] -> [eV]                                             2.72113838565563E+01
 [a.u.] -> [Hz]                                             6.57968392072181E+15
 [a.u.] -> [1/cm] (wave numbers)                            2.19474631370540E+05
 [a.u./Bohr**2] -> [1/cm]                                   5.14048714338585E+03
 

 CELL_TOP| Volume [angstrom^3]:                                      2198.132028
 CELL_TOP| Vector a [angstrom    15.120     0.000     0.000   |a| =    15.120000
 CELL_TOP| Vector b [angstrom     0.000    15.120     0.000   |b| =    15.120000
 CELL_TOP| Vector c [angstrom     0.000     0.000     9.615   |c| =     9.615020
 CELL_TOP| Angle (b,c), alpha [degree]:                                90.000000
 CELL_TOP| Angle (a,c), beta  [degree]:                                90.000000
 CELL_TOP| Angle (a,b), gamma [degree]:                                90.000000
 CELL_TOP| Requested initial symmetry:                       MONOCLINIC_GAMMA_AB
 CELL_TOP| Numerically orthorhombic:                                         YES
 CELL_TOP| Periodicity                                                       XYZ

 *** WARNING in atoms_input.F:123 :: Overwriting coordinates. Active    ***
 *** coordinates read from &COORD section. Active coordinates READ from ***
 *** &COORD section                                                     ***


 GENERATE|  Preliminary Number of Bonds generated:                             0
 GENERATE|  Achieved consistency in connectivity generation.

 CELL| Volume [angstrom^3]:                                          2198.132028
 CELL| Vector a [angstrom]:      15.120     0.000     0.000   |a| =    15.120000
 CELL| Vector b [angstrom]:       0.000    15.120     0.000   |b| =    15.120000
 CELL| Vector c [angstrom]:       0.000     0.000     9.615   |c| =     9.615020
 CELL| Angle (b,c), alpha [degree]:                                    90.000000
 CELL| Angle (a,c), beta  [degree]:                                    90.000000
 CELL| Angle (a,b), gamma [degree]:                                    90.000000
 CELL| Requested initial symmetry:                           MONOCLINIC_GAMMA_AB
 CELL| Numerically orthorhombic:                                             YES
 CELL| Periodicity                                                           XYZ

 CELL_REF| Volume [angstrom^3]:                                      2198.132028
 CELL_REF| Vector a [angstrom    15.120     0.000     0.000   |a| =    15.120000
 CELL_REF| Vector b [angstrom     0.000    15.120     0.000   |b| =    15.120000
 CELL_REF| Vector c [angstrom     0.000     0.000     9.615   |c| =     9.615020
 CELL_REF| Angle (b,c), alpha [degree]:                                90.000000
 CELL_REF| Angle (a,c), beta  [degree]:                                90.000000
 CELL_REF| Angle (a,b), gamma [degree]:                                90.000000
 CELL_REF| Requested initial symmetry:                       MONOCLINIC_GAMMA_AB
 CELL_REF| Numerically orthorhombic:                                         YES
 CELL_REF| Periodicity                                                       XYZ

 *******************************************************************************
 *******************************************************************************
 **                                                                           **
 **     #####                         ##              ##                      **
 **    ##   ##            ##          ##              ##                      **
 **   ##     ##                       ##            ######                    **
 **   ##     ##  ##   ##  ##   #####  ##  ##   ####   ##    #####    #####    **
 **   ##     ##  ##   ##  ##  ##      ## ##   ##      ##   ##   ##  ##   ##   **
 **   ##  ## ##  ##   ##  ##  ##      ####     ###    ##   ######   ######    **
 **    ##  ###   ##   ##  ##  ##      ## ##      ##   ##   ##       ##        **
 **     #######   #####   ##   #####  ##  ##  ####    ##    #####   ##        **
 **           ##                                                    ##        **
 **                                                                           **
 **                                                ... make the atoms dance   **
 **                                                                           **
 **            Copyright (C) by CP2K developers group (2000-2024)             **
 **                      J. Chem. Phys. 152, 194103 (2020)                    **
 **                                                                           **
 *******************************************************************************

 DFT| Spin unrestricted (spin-polarized) Kohn-Sham calculation               UKS
 DFT| Multiplicity                                                             1
 DFT| Number of spin states                                                    2
 DFT| Charge                                                                   0
 DFT| Self-interaction correction (SIC)                                       NO
 DFT| Cutoffs: density                                              1.000000E-10
 DFT|          gradient                                             1.000000E-10
 DFT|          tau                                                  1.000000E-10
 DFT|          cutoff_smoothing_range                               0.000000E+00
 DFT| XC density smoothing                                                  NONE
 DFT| XC derivatives                                                          PW

 DFT+U| Method                                                          MULLIKEN
 DFT+U| Check atomic kind information for details

 FUNCTIONAL| PBE:
 FUNCTIONAL| J.P.Perdew, K.Burke, M.Ernzerhof, Phys. Rev. Letter, vol. 77, n 18,
 FUNCTIONAL|  pp. 3865-3868, (1996) {spin polarized}                            


 QS| Method:                                                                 GPW
 QS| Density plane wave grid type                        NON-SPHERICAL FULLSPACE
 QS| Number of grid levels:                                                    4
 QS| Density cutoff [a.u.]:                                                300.0
 QS| Multi grid cutoff [a.u.]: 1) grid level                               300.0
 QS|                           2) grid level                               100.0
 QS|                           3) grid level                                33.3
 QS|                           4) grid level                                11.1
 QS| Grid level progression factor:                                          3.0
 QS| Relative density cutoff [a.u.]:                                        20.0
 QS| Interaction thresholds: eps_pgf_orb:                                1.0E-06
 QS|                         eps_filter_matrix:                          0.0E+00
 QS|                         eps_core_charge:                            1.0E-14
 QS|                         eps_rho_gspace:                             1.0E-12
 QS|                         eps_rho_rspace:                             1.0E-12
 QS|                         eps_gvg_rspace:                             1.0E-06
 QS|                         eps_ppl:                                    1.0E-02
 QS|                         eps_ppnl:                                   1.0E-08


 ATOMIC KIND INFORMATION

  1. Atomic kind: Ti                                    Number of atoms:      64

     Orbital Basis Set                                    DZVP-MOLOPT-SR-GTH-q12

       Number of orbital shell sets:                                           1
       Number of orbital shells:                                               8
       Number of primitive Cartesian functions:                                6
       Number of Cartesian basis functions:                                   31
       Number of spherical basis functions:                                   26
       Norm type:                                                              2

       Normalised Cartesian orbitals:

                        Set   Shell   Orbital            Exponent    Coefficient

                          1       1    2s                7.884570       0.015554
                                                         3.894698       0.963603
                                                         1.513589      -0.631435
                                                         0.596768      -0.343022
                                                         0.222222      -0.006534
                                                         0.077078       0.007652

                          1       2    3s                7.884570      -0.009340
                                                         3.894698       0.212624
                                                         1.513589      -0.258368
                                                         0.596768      -0.226206
                                                         0.222222       0.039438
                                                         0.077078       0.107179

                          1       3    4s                7.884570       0.276563
                                                         3.894698       0.105452
                                                         1.513589       0.085149
                                                         0.596768       0.882541
                                                         0.222222      -0.696223
                                                         0.077078       0.156638

                          1       4    3px               7.884570      -2.034794
                                                         3.894698       0.782008
                                                         1.513589       1.253903
                                                         0.596768       0.347823
                                                         0.222222       0.016778
                                                         0.077078      -0.000433
                          1       4    3py               7.884570      -2.034794
                                                         3.894698       0.782008
                                                         1.513589       1.253903
                                                         0.596768       0.347823
                                                         0.222222       0.016778
                                                         0.077078      -0.000433
                          1       4    3pz               7.884570      -2.034794
                                                         3.894698       0.782008
                                                         1.513589       1.253903
                                                         0.596768       0.347823
                                                         0.222222       0.016778
                                                         0.077078      -0.000433

                          1       5    4px               7.884570       0.376572
                                                         3.894698      -0.182875
                                                         1.513589      -0.474776
                                                         0.596768      -0.081757
                                                         0.222222       0.064432
                                                         0.077078       0.047279
                          1       5    4py               7.884570       0.376572
                                                         3.894698      -0.182875
                                                         1.513589      -0.474776
                                                         0.596768      -0.081757
                                                         0.222222       0.064432
                                                         0.077078       0.047279
                          1       5    4pz               7.884570       0.376572
                                                         3.894698      -0.182875
                                                         1.513589      -0.474776
                                                         0.596768      -0.081757
                                                         0.222222       0.064432
                                                         0.077078       0.047279

                          1       6    4dx2              7.884570       3.047350
                                                         3.894698       3.289529
                                                         1.513589       1.060616
                                                         0.596768       0.249930
                                                         0.222222       0.038806
                                                         0.077078       0.002319
                          1       6    4dxy              7.884570       5.278165
                                                         3.894698       5.697631
                                                         1.513589       1.837041
                                                         0.596768       0.432892
                                                         0.222222       0.067214
                                                         0.077078       0.004017
                          1       6    4dxz              7.884570       5.278165
                                                         3.894698       5.697631
                                                         1.513589       1.837041
                                                         0.596768       0.432892
                                                         0.222222       0.067214
                                                         0.077078       0.004017
                          1       6    4dy2              7.884570       3.047350
                                                         3.894698       3.289529
                                                         1.513589       1.060616
                                                         0.596768       0.249930
                                                         0.222222       0.038806
                                                         0.077078       0.002319
                          1       6    4dyz              7.884570       5.278165
                                                         3.894698       5.697631
                                                         1.513589       1.837041
                                                         0.596768       0.432892
                                                         0.222222       0.067214
                                                         0.077078       0.004017
                          1       6    4dz2              7.884570       3.047350
                                                         3.894698       3.289529
                                                         1.513589       1.060616
                                                         0.596768       0.249930
                                                         0.222222       0.038806
                                                         0.077078       0.002319

                          1       7    5dx2              7.884570      -2.119015
                                                         3.894698      -1.237751
                                                         1.513589      -0.746777
                                                         0.596768      -0.071514
                                                         0.222222       0.004086
                                                         0.077078       0.017595
                          1       7    5dxy              7.884570      -3.670241
                                                         3.894698      -2.143848
                                                         1.513589      -1.293455
                                                         0.596768      -0.123865
                                                         0.222222       0.007077
                                                         0.077078       0.030475
                          1       7    5dxz              7.884570      -3.670241
                                                         3.894698      -2.143848
                                                         1.513589      -1.293455
                                                         0.596768      -0.123865
                                                         0.222222       0.007077
                                                         0.077078       0.030475
                          1       7    5dy2              7.884570      -2.119015
                                                         3.894698      -1.237751
                                                         1.513589      -0.746777
                                                         0.596768      -0.071514
                                                         0.222222       0.004086
                                                         0.077078       0.017595
                          1       7    5dyz              7.884570      -3.670241
                                                         3.894698      -2.143848
                                                         1.513589      -1.293455
                                                         0.596768      -0.123865
                                                         0.222222       0.007077
                                                         0.077078       0.030475
                          1       7    5dz2              7.884570      -2.119015
                                                         3.894698      -1.237751
                                                         1.513589      -0.746777
                                                         0.596768      -0.071514
                                                         0.222222       0.004086
                                                         0.077078       0.017595

                          1       8    5fx3              7.884570      -0.342058
                                                         3.894698       0.375798
                                                         1.513589      -0.706469
                                                         0.596768      -0.229994
                                                         0.222222      -0.012723
                                                         0.077078       0.003932
                          1       8    5fx2y             7.884570      -0.764866
                                                         3.894698       0.840310
                                                         1.513589      -1.579712
                                                         0.596768      -0.514282
                                                         0.222222      -0.028450
                                                         0.077078       0.008792
                          1       8    5fx2z             7.884570      -0.764866
                                                         3.894698       0.840310
                                                         1.513589      -1.579712
                                                         0.596768      -0.514282
                                                         0.222222      -0.028450
                                                         0.077078       0.008792
                          1       8    5fxy2             7.884570      -0.764866
                                                         3.894698       0.840310
                                                         1.513589      -1.579712
                                                         0.596768      -0.514282
                                                         0.222222      -0.028450
                                                         0.077078       0.008792
                          1       8    5fxyz             7.884570      -1.324787
                                                         3.894698       1.455460
                                                         1.513589      -2.736142
                                                         0.596768      -0.890763
                                                         0.222222      -0.049276
                                                         0.077078       0.015229
                          1       8    5fxz2             7.884570      -0.764866
                                                         3.894698       0.840310
                                                         1.513589      -1.579712
                                                         0.596768      -0.514282
                                                         0.222222      -0.028450
                                                         0.077078       0.008792
                          1       8    5fy3              7.884570      -0.342058
                                                         3.894698       0.375798
                                                         1.513589      -0.706469
                                                         0.596768      -0.229994
                                                         0.222222      -0.012723
                                                         0.077078       0.003932
                          1       8    5fy2z             7.884570      -0.764866
                                                         3.894698       0.840310
                                                         1.513589      -1.579712
                                                         0.596768      -0.514282
                                                         0.222222      -0.028450
                                                         0.077078       0.008792
                          1       8    5fyz2             7.884570      -0.764866
                                                         3.894698       0.840310
                                                         1.513589      -1.579712
                                                         0.596768      -0.514282
                                                         0.222222      -0.028450
                                                         0.077078       0.008792
                          1       8    5fz3              7.884570      -0.342058
                                                         3.894698       0.375798
                                                         1.513589      -0.706469
                                                         0.596768      -0.229994
                                                         0.222222      -0.012723
                                                         0.077078       0.003932

       Atomic covalent radius [Angstrom]:                                  1.320

       Atomic van der Waals radius [Angstrom]:                             1.760

     GTH Potential information for                                   GTH-PBE-q12

       Description:                       Goedecker-Teter-Hutter pseudopotential
                                           Goedecker et al., PRB 54, 1703 (1996)
                                          Hartwigsen et al., PRB 58, 3641 (1998)
                                                      Krack, TCA 114, 145 (2005)

       Gaussian exponent of the core charge distribution:               3.462604
       Electronic configuration (s p d ...):                           4   6   2

       Parameters of the local part of the GTH pseudopotential:

                          rloc        C1          C2          C3          C4
                        0.380000    8.711442   -0.700287

       Parameters of the non-local part of the GTH pseudopotential:

                   l      r(l)      h(i,j,l)

                   0    0.337771    2.575264    3.692971
                                    3.692971   -4.767605
                   1    0.242531   -4.630541    8.870875
                                    8.870875  -10.496161
                   2    0.243317   -9.406653

  2. Atomic kind: O                                     Number of atoms:     128

     Orbital Basis Set                                     DZVP-MOLOPT-SR-GTH-q6

       Number of orbital shell sets:                                           1
       Number of orbital shells:                                               5
       Number of primitive Cartesian functions:                                5
       Number of Cartesian basis functions:                                   14
       Number of spherical basis functions:                                   13
       Norm type:                                                              2

       Normalised Cartesian orbitals:

                        Set   Shell   Orbital            Exponent    Coefficient

                          1       1    2s               10.389228       0.396646
                                                         3.849621       0.208811
                                                         1.388401      -0.301641
                                                         0.496955      -0.274061
                                                         0.162492      -0.033677

                          1       2    3s               10.389228       0.303673
                                                         3.849621       0.240943
                                                         1.388401      -0.313066
                                                         0.496955      -0.043055
                                                         0.162492       0.213991

                          1       3    3px              10.389228      -1.530415
                                                         3.849621      -1.371928
                                                         1.388401      -0.761951
                                                         0.496955      -0.253695
                                                         0.162492      -0.035541
                          1       3    3py              10.389228      -1.530415
                                                         3.849621      -1.371928
                                                         1.388401      -0.761951
                                                         0.496955      -0.253695
                                                         0.162492      -0.035541
                          1       3    3pz              10.389228      -1.530415
                                                         3.849621      -1.371928
                                                         1.388401      -0.761951
                                                         0.496955      -0.253695
                                                         0.162492      -0.035541

                          1       4    4px              10.389228      -0.565392
                                                         3.849621      -0.038231
                                                         1.388401      -0.382373
                                                         0.496955       0.179070
                                                         0.162492       0.122714
                          1       4    4py              10.389228      -0.565392
                                                         3.849621      -0.038231
                                                         1.388401      -0.382373
                                                         0.496955       0.179070
                                                         0.162492       0.122714
                          1       4    4pz              10.389228      -0.565392
                                                         3.849621      -0.038231
                                                         1.388401      -0.382373
                                                         0.496955       0.179070
                                                         0.162492       0.122714

                          1       5    4dx2             10.389228       1.867377
                                                         3.849621       0.670994
                                                         1.388401       1.353441
                                                         0.496955       0.273538
                                                         0.162492       0.006620
                          1       5    4dxy             10.389228       3.234392
                                                         3.849621       1.162195
                                                         1.388401       2.344229
                                                         0.496955       0.473781
                                                         0.162492       0.011466
                          1       5    4dxz             10.389228       3.234392
                                                         3.849621       1.162195
                                                         1.388401       2.344229
                                                         0.496955       0.473781
                                                         0.162492       0.011466
                          1       5    4dy2             10.389228       1.867377
                                                         3.849621       0.670994
                                                         1.388401       1.353441
                                                         0.496955       0.273538
                                                         0.162492       0.006620
                          1       5    4dyz             10.389228       3.234392
                                                         3.849621       1.162195
                                                         1.388401       2.344229
                                                         0.496955       0.473781
                                                         0.162492       0.011466
                          1       5    4dz2             10.389228       1.867377
                                                         3.849621       0.670994
                                                         1.388401       1.353441
                                                         0.496955       0.273538
                                                         0.162492       0.006620

       Atomic covalent radius [Angstrom]:                                  0.730

       Atomic van der Waals radius [Angstrom]:                             1.520

     GTH Potential information for                                    GTH-PBE-q6

       Description:                       Goedecker-Teter-Hutter pseudopotential
                                           Goedecker et al., PRB 54, 1703 (1996)
                                          Hartwigsen et al., PRB 58, 3641 (1998)
                                                      Krack, TCA 114, 145 (2005)

       Gaussian exponent of the core charge distribution:               8.360253
       Electronic configuration (s p d ...):                               2   4

       Parameters of the local part of the GTH pseudopotential:

                          rloc        C1          C2          C3          C4
                        0.244554  -16.667215    2.487311

       Parameters of the non-local part of the GTH pseudopotential:

                   l      r(l)      h(i,j,l)

                   0    0.220956   18.337458
                   1    0.211332

     A DFT+U correction is applied to atoms of this atomic kind:
       Angular quantum momentum number L:                                      1
       U(eff) = (U - J) value in [eV]:                                     2.600


 MOLECULE KIND INFORMATION


 All atoms are their own molecule, skipping detailed information


 TOTAL NUMBERS AND MAXIMUM NUMBERS

  Total number of            - Atomic kinds:                                   2
                             - Atoms:                                        192
                             - Shell sets:                                   192
                             - Shells:                                      1152
                             - Primitive Cartesian functions:               1024
                             - Cartesian basis functions:                   3776
                             - Spherical basis functions:                   3328

  Maximum angular momentum of- Orbital basis functions:                        3
                             - Local part of the GTH pseudopotential:          2
                             - Non-local part of the GTH pseudopotential:      3


 MODULE QUICKSTEP: ATOMIC COORDINATES IN ANGSTROM

   Atom Kind Element         X             Y             Z       Z(eff)     Mass
      1    1 Ti   22     -0.008169      0.064631     -0.009088  12.0000  47.8670
      2    1 Ti   22      1.893018      1.894686      4.808157  12.0000  47.8670
      3    1 Ti   22     -0.006692      1.911021      2.437241  12.0000  47.8670
      4    1 Ti   22      1.883993      0.010716      7.212699  12.0000  47.8670
      5    1 Ti   22     -0.003696      3.765314     -0.008862  12.0000  47.8670
      6    1 Ti   22      1.893679     13.246554      4.814435  12.0000  47.8670
      7    1 Ti   22     11.322723      1.906227      2.404047  12.0000  47.8670
      8    1 Ti   22      5.651427      0.005437      7.210675  12.0000  47.8670
      9    1 Ti   22      1.887819      3.780731      7.211732  12.0000  47.8670
     10    1 Ti   22     -0.004502     13.258087      2.434586  12.0000  47.8670
     11    1 Ti   22      5.657051      1.894643      4.809343  12.0000  47.8670
     12    1 Ti   22     11.319614      0.017328     -0.004238  12.0000  47.8670
     13    1 Ti   22      3.764123      0.021646      0.005691  12.0000  47.8670
     14    1 Ti   22     13.212209      1.887527      4.803839  12.0000  47.8670
     15    1 Ti   22     13.217735      0.009974      7.219295  12.0000  47.8670
     16    1 Ti   22      3.770253      1.916142      2.397332  12.0000  47.8670
     17    1 Ti   22      1.899997      5.664540      4.813604  12.0000  47.8670
     18    1 Ti   22     -0.001797     11.497668     -0.034007  12.0000  47.8670
     19    1 Ti   22     -0.000175      5.682828      2.434953  12.0000  47.8670
     20    1 Ti   22      1.888072     11.349160      7.198933  12.0000  47.8670
     21    1 Ti   22      0.000419      7.448976     -0.033972  12.0000  47.8670
     22    1 Ti   22      1.924373      9.458697      4.813425  12.0000  47.8670
     23    1 Ti   22      7.542420      1.913677      2.399229  12.0000  47.8670
     24    1 Ti   22      9.426901      0.004959      7.215141  12.0000  47.8670
     25    1 Ti   22      1.891232      7.564647      7.196023  12.0000  47.8670
     26    1 Ti   22      0.001624      9.471134      2.491201  12.0000  47.8670
     27    1 Ti   22      9.430600      1.893243      4.805347  12.0000  47.8670
     28    1 Ti   22      7.538709      0.016182      0.002648  12.0000  47.8670
     29    1 Ti   22      3.772172      3.807295      0.001956  12.0000  47.8670
     30    1 Ti   22     13.214492     13.247137      4.810350  12.0000  47.8670
     31    1 Ti   22     11.345125      5.691456      2.399784  12.0000  47.8670
     32    1 Ti   22      5.658427     11.358752      7.209303  12.0000  47.8670
     33    1 Ti   22     13.224116      3.776915      7.210933  12.0000  47.8670
     34    1 Ti   22      3.765493     13.247853      2.399714  12.0000  47.8670
     35    1 Ti   22      5.674655      5.669804      4.807437  12.0000  47.8670
     36    1 Ti   22     11.333200     11.357755     -0.000692  12.0000  47.8670
     37    1 Ti   22     11.332108     13.247465      2.405840  12.0000  47.8670
     38    1 Ti   22      5.658627      3.781789      7.212541  12.0000  47.8670
     39    1 Ti   22      3.779350     11.358912      0.004670  12.0000  47.8670
     40    1 Ti   22     13.222311      5.661885      4.815698  12.0000  47.8670
     41    1 Ti   22      5.657289     13.240653      4.802598  12.0000  47.8670
     42    1 Ti   22     11.335456      3.797542      0.000837  12.0000  47.8670
     43    1 Ti   22     13.228756     11.353055      7.200323  12.0000  47.8670
     44    1 Ti   22      3.778622      5.696717      2.403527  12.0000  47.8670
     45    1 Ti   22      3.786111      7.585000     -0.003945  12.0000  47.8670
     46    1 Ti   22     13.199315      9.462407      4.814966  12.0000  47.8670
     47    1 Ti   22      7.565000      5.694138      2.404811  12.0000  47.8670
     48    1 Ti   22      9.447025     11.355172      7.214461  12.0000  47.8670
     49    1 Ti   22     13.231550      7.565852      7.194808  12.0000  47.8670
     50    1 Ti   22      3.794719      9.467738      2.398904  12.0000  47.8670
     51    1 Ti   22      9.456540      5.668528      4.808695  12.0000  47.8670
     52    1 Ti   22      7.550295     11.362786     -0.004462  12.0000  47.8670
     53    1 Ti   22     11.333319      9.472653      2.396985  12.0000  47.8670
     54    1 Ti   22      5.672451      7.560920      7.209117  12.0000  47.8670
     55    1 Ti   22      5.682499      9.458055      4.817869  12.0000  47.8670
     56    1 Ti   22     11.338915      7.583533      0.003487  12.0000  47.8670
     57    1 Ti   22      9.444086      3.778963      7.213842  12.0000  47.8670
     58    1 Ti   22      7.547019     13.246822      2.403186  12.0000  47.8670
     59    1 Ti   22      7.550549      3.804737     -0.001803  12.0000  47.8670
     60    1 Ti   22      9.434128     13.240279      4.803445  12.0000  47.8670
     61    1 Ti   22      7.562879      7.579251     -0.003825  12.0000  47.8670
     62    1 Ti   22      9.445964      9.463242      4.815478  12.0000  47.8670
     63    1 Ti   22      7.562220      9.473194      2.397639  12.0000  47.8670
     64    1 Ti   22      9.458434      7.561452      7.205920  12.0000  47.8670
     65    2 O     8      0.001032      0.017303      1.997260   6.0000  15.9994
     66    2 O     8      1.882368      1.890541      6.797487   6.0000  15.9994
     67    2 O     8     -0.005212      1.883402      4.395359   6.0000  15.9994
     68    2 O     8      1.877968      0.060628      9.203283   6.0000  15.9994
     69    2 O     8      1.880735      0.003802      5.216639   6.0000  15.9994
     70    2 O     8     -0.002417      1.917672      0.423329   6.0000  15.9994
     71    2 O     8      1.883898      1.938139      2.814635   6.0000  15.9994
     72    2 O     8     -0.007143      0.000403      7.626707   6.0000  15.9994
     73    2 O     8     -0.005345      3.807804      1.999420   6.0000  15.9994
     74    2 O     8      1.887087     13.238805      6.801210   6.0000  15.9994
     75    2 O     8     11.329765      1.879510      4.395043   6.0000  15.9994
     76    2 O     8      5.648364     -0.000059      9.210009   6.0000  15.9994
     77    2 O     8      1.882758      3.778299      5.217322   6.0000  15.9994
     78    2 O     8     -0.001895     13.291340      0.401939   6.0000  15.9994
     79    2 O     8      5.653827      1.944050      2.811930   6.0000  15.9994
     80    2 O     8     11.324344     -0.000241      7.623315   6.0000  15.9994
     81    2 O     8      3.765103      0.000324      7.626342   6.0000  15.9994
     82    2 O     8     13.220314      1.889872      2.813581   6.0000  15.9994
     83    2 O     8     13.221592      0.058739      9.205117   6.0000  15.9994
     84    2 O     8      3.768166      1.882033      4.394279   6.0000  15.9994
     85    2 O     8      1.888732      5.665818      6.796806   6.0000  15.9994
     86    2 O     8     -0.000933     11.342110      1.937253   6.0000  15.9994
     87    2 O     8     -0.000650      5.658832      0.406531   6.0000  15.9994
     88    2 O     8      1.886239     11.346061      5.218496   6.0000  15.9994
     89    2 O     8      0.000442      7.605470      1.939631   6.0000  15.9994
     90    2 O     8      1.876035      9.457916      6.797537   6.0000  15.9994
     91    2 O     8      7.540687      1.884583      4.393562   6.0000  15.9994
     92    2 O     8      9.430228      0.007279      9.203698   6.0000  15.9994
     93    2 O     8      1.879885      7.568094      5.220148   6.0000  15.9994
     94    2 O     8     -0.000459      9.473357      0.264963   6.0000  15.9994
     95    2 O     8      9.433243      1.934791      2.816197   6.0000  15.9994
     96    2 O     8      7.535161      0.001824      7.627911   6.0000  15.9994
     97    2 O     8      3.766933      0.019084      1.992956   6.0000  15.9994
     98    2 O     8     13.231256      1.887757      6.798161   6.0000  15.9994
     99    2 O     8      0.000111      5.653726      4.395325   6.0000  15.9994
    100    2 O     8      1.872178     11.286115      9.210694   6.0000  15.9994
    101    2 O     8     13.233996      0.002746      5.218583   6.0000  15.9994
    102    2 O     8      3.767938      1.917689      0.413955   6.0000  15.9994
    103    2 O     8      1.885551      5.714122      2.817656   6.0000  15.9994
    104    2 O     8     -0.001325     11.420824      7.610093   6.0000  15.9994
    105    2 O     8     11.301510      1.907797      0.412182   6.0000  15.9994
    106    2 O     8      5.649004      0.003002      5.217272   6.0000  15.9994
    107    2 O     8      5.648345      1.889895      6.800257   6.0000  15.9994
    108    2 O     8     11.301825      0.012090      1.990609   6.0000  15.9994
    109    2 O     8      1.881862      3.822200      9.203462   6.0000  15.9994
    110    2 O     8     -0.004172     13.236227      4.391725   6.0000  15.9994
    111    2 O     8     -0.003779      3.762923      7.624694   6.0000  15.9994
    112    2 O     8      1.879663     13.237569      2.816114   6.0000  15.9994
    113    2 O     8      3.765903      3.816591      1.990214   6.0000  15.9994
    114    2 O     8     13.226905     13.240874      6.801950   6.0000  15.9994
    115    2 O     8     11.349971      5.650913      4.397557   6.0000  15.9994
    116    2 O     8      5.656304     11.409266      9.204002   6.0000  15.9994
    117    2 O     8     13.235024      3.773365      5.215608   6.0000  15.9994
    118    2 O     8      3.707172     13.245326      0.410477   6.0000  15.9994
    119    2 O     8      5.669269      5.711404      2.817020   6.0000  15.9994
    120    2 O     8     11.347880     11.362715      7.624934   6.0000  15.9994
    121    2 O     8     11.358747     13.243583      0.406484   6.0000  15.9994
    122    2 O     8      5.652563      3.779845      5.219720   6.0000  15.9994
    123    2 O     8      3.764460     11.356365      7.626647   6.0000  15.9994
    124    2 O     8     13.235722      5.714028      2.816905   6.0000  15.9994
    125    2 O     8      5.648632     13.236928      6.795738   6.0000  15.9994
    126    2 O     8     11.354286      3.802034      1.990219   6.0000  15.9994
    127    2 O     8     13.243705     11.292094      9.209987   6.0000  15.9994
    128    2 O     8      3.776331      5.658314      4.397675   6.0000  15.9994
    129    2 O     8      5.650426      5.669390      6.796932   6.0000  15.9994
    130    2 O     8     11.349382     11.360002      1.991565   6.0000  15.9994
    131    2 O     8     13.228232      3.814438      9.203602   6.0000  15.9994
    132    2 O     8      3.765726     13.238443      4.395111   6.0000  15.9994
    133    2 O     8     11.357198      5.700321      0.409506   6.0000  15.9994
    134    2 O     8      5.648417     11.347630      5.219484   6.0000  15.9994
    135    2 O     8      3.768272      3.765824      7.624267   6.0000  15.9994
    136    2 O     8     13.228333     13.241182      2.814097   6.0000  15.9994
    137    2 O     8     13.235834     11.350556      5.219907   6.0000  15.9994
    138    2 O     8      3.762016      5.706476      0.408241   6.0000  15.9994
    139    2 O     8      5.651698     13.240831      2.810749   6.0000  15.9994
    140    2 O     8     11.339260      3.761077      7.624716   6.0000  15.9994
    141    2 O     8      3.767531     11.356554      1.993953   6.0000  15.9994
    142    2 O     8     13.229460      5.663628      6.796012   6.0000  15.9994
    143    2 O     8     11.336998     13.241842      4.395636   6.0000  15.9994
    144    2 O     8      5.655533      3.826078      9.205318   6.0000  15.9994
    145    2 O     8      3.766975      7.587849      1.990113   6.0000  15.9994
    146    2 O     8     13.242808      9.460243      6.799026   6.0000  15.9994
    147    2 O     8      7.568979      5.648412      4.396470   6.0000  15.9994
    148    2 O     8      9.451273     11.353941      9.203252   6.0000  15.9994
    149    2 O     8     13.236901      7.571231      5.219504   6.0000  15.9994
    150    2 O     8      3.823098      9.473866      0.412402   6.0000  15.9994
    151    2 O     8      9.462890      5.709377      2.815812   6.0000  15.9994
    152    2 O     8      7.548662     11.350019      7.622414   6.0000  15.9994
    153    2 O     8     11.341519      9.472983      0.413699   6.0000  15.9994
    154    2 O     8      5.703078      7.564393      5.220430   6.0000  15.9994
    155    2 O     8      5.649196      9.458171      6.803960   6.0000  15.9994
    156    2 O     8     11.353121      7.586725      1.992790   6.0000  15.9994
    157    2 O     8      9.443750      3.828306      9.203488   6.0000  15.9994
    158    2 O     8      7.542863     13.234561      4.394964   6.0000  15.9994
    159    2 O     8      7.547408      3.769717      7.623443   6.0000  15.9994
    160    2 O     8      9.438546     13.237309      2.817118   6.0000  15.9994
    161    2 O     8      7.531872      0.018078      1.994734   6.0000  15.9994
    162    2 O     8      9.416595      1.888920      6.801301   6.0000  15.9994
    163    2 O     8      0.001015      9.468793      4.389214   6.0000  15.9994
    164    2 O     8      1.876369      7.662923      9.208613   6.0000  15.9994
    165    2 O     8      9.421999      0.002380      5.218000   6.0000  15.9994
    166    2 O     8      7.531994      1.912160      0.410597   6.0000  15.9994
    167    2 O     8      1.890418      9.475725      2.808877   6.0000  15.9994
    168    2 O     8     -0.000044      7.472029      7.609382   6.0000  15.9994
    169    2 O     8      7.580292      3.812253      1.988061   6.0000  15.9994
    170    2 O     8      9.417262     13.236891      6.800873   6.0000  15.9994
    171    2 O     8     11.347178      9.469994      4.399435   6.0000  15.9994
    172    2 O     8      5.666361      7.592427      9.194600   6.0000  15.9994
    173    2 O     8      9.465669      3.775856      5.220076   6.0000  15.9994
    174    2 O     8      7.580503     13.245786      0.414321   6.0000  15.9994
    175    2 O     8      5.670625      9.471166      2.825854   6.0000  15.9994
    176    2 O     8     11.354116      7.531801      7.624311   6.0000  15.9994
    177    2 O     8      3.768036      7.532303      7.620802   6.0000  15.9994
    178    2 O     8     13.233513      9.474572      2.809206   6.0000  15.9994
    179    2 O     8     13.246235      7.659479      9.208284   6.0000  15.9994
    180    2 O     8      3.778974      9.423273      4.401279   6.0000  15.9994
    181    2 O     8      9.464799      5.666987      6.796906   6.0000  15.9994
    182    2 O     8      7.536105     11.357619      1.990586   6.0000  15.9994
    183    2 O     8      7.534220      5.701823      0.410920   6.0000  15.9994
    184    2 O     8      9.467440     11.351915      5.222283   6.0000  15.9994
    185    2 O     8      7.586192      7.588005      1.991033   6.0000  15.9994
    186    2 O     8      9.467085      9.460284      6.802749   6.0000  15.9994
    187    2 O     8      7.567720      9.472111      4.400977   6.0000  15.9994
    188    2 O     8      9.458490      7.595878      9.202442   6.0000  15.9994
    189    2 O     8      9.469113      7.568430      5.220184   6.0000  15.9994
    190    2 O     8      7.532694      9.474476      0.408329   6.0000  15.9994
    191    2 O     8      9.456264      9.477243      2.817507   6.0000  15.9994
    192    2 O     8      7.567443      7.537150      7.619310   6.0000  15.9994



 SCF PARAMETERS         Density guess:                                   RESTART
                        --------------------------------------------------------
                        max_scf:                                              40
                        max_scf_history:                                       0
                        max_diis:                                              4
                        --------------------------------------------------------
                        eps_scf:                                        1.00E-06
                        eps_scf_history:                                0.00E+00
                        eps_diis:                                       1.00E-01
                        eps_eigval:                                     1.00E-05
                        --------------------------------------------------------
                        level_shift [a.u.]:                             0.000000
                        --------------------------------------------------------
                        Outer loop SCF in use 
                        No variables optimised in outer loop
                        eps_scf                                         1.00E-06
                        max_scf                                               60
                        No outer loop optimization
                        step_size                                       5.00E-01

 PW_GRID| Information for grid number                                          1
 PW_GRID| Grid distributed over                                   128 processors
 PW_GRID| Real space group dimensions                                   128    1
 PW_GRID| the grid is blocked:                                                NO
 PW_GRID| Cutoff [a.u.]                                                    300.0
 PW_GRID| spherical cutoff:                                                   NO
 PW_GRID|   Bounds   1           -112     112                Points:         225
 PW_GRID|   Bounds   2           -112     112                Points:         225
 PW_GRID|   Bounds   3            -72      71                Points:         144
 PW_GRID| Volume element (a.u.^3)  0.2035E-02     Volume (a.u.^3)     14833.7304
 PW_GRID| Grid span                                                    FULLSPACE
 PW_GRID|   Distribution                         Average         Max         Min
 PW_GRID|   G-Vectors                            56953.1       57150       56925
 PW_GRID|   G-Rays                                 253.1         254         253
 PW_GRID|   Real Space Points                    56953.1       64800       32400

 PW_GRID| Information for grid number                                          2
 PW_GRID| Number of the reference grid                                         1
 PW_GRID| Grid distributed over                                   128 processors
 PW_GRID| Real space group dimensions                                   128    1
 PW_GRID| the grid is blocked:                                                NO
 PW_GRID| Cutoff [a.u.]                                                    100.0
 PW_GRID| spherical cutoff:                                                   NO
 PW_GRID|   Bounds   1            -67      67                Points:         135
 PW_GRID|   Bounds   2            -67      67                Points:         135
 PW_GRID|   Bounds   3            -40      40                Points:          81
 PW_GRID| Volume element (a.u.^3)  0.1005E-01     Volume (a.u.^3)     14833.7304
 PW_GRID| Grid span                                                    FULLSPACE
 PW_GRID|   Distribution                         Average         Max         Min
 PW_GRID|   G-Vectors                            11533.0       12150       10800
 PW_GRID|   G-Rays                                  85.4          90          80
 PW_GRID|   Real Space Points                    11533.0       21870       10935

 PW_GRID| Information for grid number                                          3
 PW_GRID| Number of the reference grid                                         1
 PW_GRID| Grid distributed over                                   128 processors
 PW_GRID| Real space group dimensions                                     8   16
 PW_GRID| the grid is blocked:                                                NO
 PW_GRID| Cutoff [a.u.]                                                     33.3
 PW_GRID| spherical cutoff:                                                   NO
 PW_GRID|   Bounds   1            -37      37                Points:          75
 PW_GRID|   Bounds   2            -37      37                Points:          75
 PW_GRID|   Bounds   3            -24      23                Points:          48
 PW_GRID| Volume element (a.u.^3)  0.5494E-01     Volume (a.u.^3)     14833.7304
 PW_GRID| Grid span                                                    FULLSPACE
 PW_GRID|   Distribution                         Average         Max         Min
 PW_GRID|   G-Vectors                             2109.4        2475        1725
 PW_GRID|   G-Rays                                  28.1          33          23
 PW_GRID|   Real Space Points                     2109.4        2400        1728

 PW_GRID| Information for grid number                                          4
 PW_GRID| Number of the reference grid                                         1
 PW_GRID| Grid distributed over                                   128 processors
 PW_GRID| Real space group dimensions                                     8   16
 PW_GRID| the grid is blocked:                                                NO
 PW_GRID| Cutoff [a.u.]                                                     11.1
 PW_GRID| spherical cutoff:                                                   NO
 PW_GRID|   Bounds   1            -22      22                Points:          45
 PW_GRID|   Bounds   2            -22      22                Points:          45
 PW_GRID|   Bounds   3            -13      13                Points:          27
 PW_GRID| Volume element (a.u.^3)  0.2713         Volume (a.u.^3)     14833.7304
 PW_GRID| Grid span                                                    FULLSPACE
 PW_GRID|   Distribution                         Average         Max         Min
 PW_GRID|   G-Vectors                              427.1         585         270
 PW_GRID|   G-Rays                                   9.5          13           6
 PW_GRID|   Real Space Points                      427.1         486         270

 POISSON| Solver                                                        PERIODIC
 POISSON| Periodicity                                                        XYZ

 RS_GRID| Information for grid number                                          1
 RS_GRID|   Bounds   1           -112     112                Points:         225
 RS_GRID|   Bounds   2           -112     112                Points:         225
 RS_GRID|   Bounds   3            -72      71                Points:         144
 RS_GRID| Real space distribution over                                  8 groups
 RS_GRID| Real space distribution along direction                              1
 RS_GRID| Border size                                                         26
 RS_GRID| Real space distribution over                                 16 groups
 RS_GRID| Real space distribution along direction                              2
 RS_GRID| Border size                                                         26
 RS_GRID|   Distribution                         Average         Max         Min
 RS_GRID|   Planes                                  80.1          81          80
 RS_GRID|   Distribution                         Average         Max         Min
 RS_GRID|   Planes                                  66.1          67          66

 RS_GRID| Information for grid number                                          2
 RS_GRID|   Bounds   1            -67      67                Points:         135
 RS_GRID|   Bounds   2            -67      67                Points:         135
 RS_GRID|   Bounds   3            -40      40                Points:          81
 RS_GRID| Real space distribution over                                  8 groups
 RS_GRID| Real space distribution along direction                              1
 RS_GRID| Border size                                                         24
 RS_GRID| Real space distribution over                                 16 groups
 RS_GRID| Real space distribution along direction                              2
 RS_GRID| Border size                                                         24
 RS_GRID|   Distribution                         Average         Max         Min
 RS_GRID|   Planes                                  64.9          65          64
 RS_GRID|   Distribution                         Average         Max         Min
 RS_GRID|   Planes                                  56.4          57          56

 RS_GRID| Information for grid number                                          3
 RS_GRID|   Bounds   1            -37      37                Points:          75
 RS_GRID|   Bounds   2            -37      37                Points:          75
 RS_GRID|   Bounds   3            -24      23                Points:          48
 RS_GRID| Real space fully replicated
 RS_GRID| Group size                                                           1

 RS_GRID| Information for grid number                                          4
 RS_GRID|   Bounds   1            -22      22                Points:          45
 RS_GRID|   Bounds   2            -22      22                Points:          45
 RS_GRID|   Bounds   3            -13      13                Points:          27
 RS_GRID| Real space fully replicated
 RS_GRID| Group size                                                           1

 Spin 1

 Number of electrons:                                                        768
 Number of occupied orbitals:                                                768
 Number of molecular orbitals:                                               768

 Spin 2

 Number of electrons:                                                        768
 Number of occupied orbitals:                                                768
 Number of molecular orbitals:                                               768

 Number of orbital functions:                                               3328
 Number of independent orbital functions:                                   3328

 Extrapolation method: initial_guess

 *** WARNING in qs_initial_guess.F:306 :: User requested to restart the    ***
 *** wavefunction from the file named: tio2-RESTART.wfn. This file does    ***
 *** not exist. Please check the existence of the file or change properly  ***
 *** the value of the keyword WFN_RESTART_FILE_NAME. Calculation continues ***
 *** using ATOMIC GUESS.                                                   ***


 Atomic guess: The first density matrix is obtained in terms of atomic orbitals
               and electronic configurations assigned to each atomic kind

 Guess for atomic kind: Ti

 Electronic structure
    Total number of core electrons                                         10.00
    Total number of valence electrons                                      12.00
    Total number of electrons                                              22.00
    Multiplicity                                                   not specified
    S   [  2.00  2.00] 2.00  2.00
    P   [  6.00] 6.00
    D      2.00


 *******************************************************************************
                  Iteration          Convergence                     Energy [au]
 *******************************************************************************
                          1         2.59099                     -56.573945749309
                          2        0.737518                     -57.461623245624
                          3        0.123244E-01                 -57.676656834797
                          4        0.338536E-02                 -57.676690535970
                          5        0.252157E-03                 -57.676697146183
                          6        0.162704E-05                 -57.676697160103
                          7        0.846593E-06                 -57.676697160104

 Energy components [Hartree]           Total Energy ::          -57.676697160104
                                        Band Energy ::          -13.440549799540
                                     Kinetic Energy ::           25.008468428381
                                   Potential Energy ::          -82.685165588485
                                      Virial (-V/T) ::            3.306286661467
                                        Core Energy ::          -97.155838374470
                                          XC Energy ::           -6.919409696495
                                     Coulomb Energy ::           46.398550910862
                       Total Pseudopotential Energy ::         -122.259340742080
                       Local Pseudopotential Energy ::         -118.928992669456
                    Nonlocal Pseudopotential Energy ::           -3.330348072625
                                        Confinement ::            0.950339392289

 Orbital energies  State     L     Occupation   Energy[a.u.]          Energy[eV]

                       1     0          2.000      -2.312566          -62.928123
                       2     0          2.000      -0.123060           -3.348633

                       1     1          6.000      -1.385567          -37.703193

                       1     2          2.000      -0.127948           -3.481643


 Total Electron Density at R=0:                                         0.004726

 Guess for atomic kind: O

 Electronic structure
    Total number of core electrons                                          2.00
    Total number of valence electrons                                       6.00
    Total number of electrons                                               8.00
    Multiplicity                                                   not specified
    S   [  2.00] 2.00
    P      4.00


 *******************************************************************************
                  Iteration          Convergence                     Energy [au]
 *******************************************************************************
                          1        0.702811                     -15.577904332270
                          2        0.612408                     -15.588447180504
                          3        0.955344E-02                 -15.655871208406
                          4        0.223754E-02                 -15.655885053552
                          5        0.157183E-02                 -15.655885461027
                          6        0.124953E-02                 -15.655885607150
                          7        0.312011E-06                 -15.655885858066

 Energy components [Hartree]           Total Energy ::          -15.655885858066
                                        Band Energy ::           -2.983128125584
                                     Kinetic Energy ::           11.754765134683
                                   Potential Energy ::          -27.410650992749
                                      Virial (-V/T) ::            2.331875684345
                                        Core Energy ::          -26.153522949072
                                          XC Energy ::           -3.157392363346
                                     Coulomb Energy ::           13.655029454351
                       Total Pseudopotential Energy ::          -37.943026860963
                       Local Pseudopotential Energy ::          -39.220419683052
                    Nonlocal Pseudopotential Energy ::            1.277392822089
                                        Confinement ::            0.347387772086

 Orbital energies  State     L     Occupation   Energy[a.u.]          Energy[eV]

                       1     0          2.000      -0.861522          -23.443215

                       1     1          4.000      -0.315021           -8.572154


 Total Electron Density at R=0:                                         0.000093

 Spin 1
 Re-scaling the density matrix to get the right number of electrons for spin 1
                  # Electrons              Trace(P)               Scaling factor
                          768               768.001                        1.000

 Spin 2
 Re-scaling the density matrix to get the right number of electrons for spin 2
                  # Electrons              Trace(P)               Scaling factor
                          768               768.001                        1.000


 SCF WAVEFUNCTION OPTIMIZATION

  ----------------------------------- OT ---------------------------------------
  Minimizer      : DIIS                : direct inversion
                                         in the iterative subspace
                                         using   7 DIIS vectors
                                         safer DIIS on
  Preconditioner : FULL_SINGLE_INVERSE : inversion of 
                                         H + eS - 2*(Sc)(c^T*H*c+const)(Sc)^T
  Precond_solver : DEFAULT
  stepsize       :    0.08000000                  energy_gap     :    0.08000000
  eps_taylor     :   0.10000E-15                  max_taylor     :             4
  ----------------------------------- OT ---------------------------------------

  Step     Update method      Time    Convergence         Total energy    Change
  ------------------------------------------------------------------------------
     1 OT DIIS     0.80E-01    2.2     0.01004872     -5658.2058968269 -5.66E+03
     2 OT DIIS     0.80E-01    1.5     0.00725877     -5693.1168187200 -3.49E+01
     3 OT DIIS     0.80E-01    1.5     0.00471593     -5725.0043363235 -3.19E+01
     4 OT DIIS     0.80E-01    1.5     0.00369493     -5735.4515652234 -1.04E+01
     5 OT DIIS     0.80E-01    1.5     0.00269915     -5747.2269008695 -1.18E+01
     6 OT DIIS     0.80E-01    1.5     0.00221629     -5754.2836567111 -7.06E+00
     7 OT DIIS     0.80E-01    1.5     0.00185004     -5760.5730362734 -6.29E+00
     8 OT DIIS     0.80E-01    1.5     0.00148424     -5766.5084539478 -5.94E+00
     9 OT DIIS     0.80E-01    1.5     0.00128279     -5770.1759619190 -3.67E+00
    10 OT DIIS     0.80E-01    1.5     0.00099974     -5773.4944252782 -3.32E+00
    11 OT DIIS     0.80E-01    1.5     0.00091053     -5774.3294839193 -8.35E-01
    12 OT DIIS     0.80E-01    1.5     0.00073092     -5776.2206340774 -1.89E+00
    13 OT DIIS     0.80E-01    1.5     0.00060118     -5777.5104543306 -1.29E+00
    14 OT DIIS     0.80E-01    1.5     0.00049516     -5778.4679782604 -9.58E-01
    15 OT DIIS     0.80E-01    1.5     0.00044653     -5778.9207035583 -4.53E-01
    16 OT DIIS     0.80E-01    1.5     0.00037135     -5779.5448985551 -6.24E-01
    17 OT DIIS     0.80E-01    1.5     0.00037817     -5779.5417508835  3.15E-03
    18 OT DIIS     0.80E-01    1.5     0.00031150     -5779.9336456888 -3.92E-01
    19 OT DIIS     0.80E-01    1.5     0.00028070     -5780.1904666403 -2.57E-01
    20 OT DIIS     0.80E-01    1.5     0.00026402     -5780.2966193889 -1.06E-01
    21 OT DIIS     0.80E-01    1.5     0.00023164     -5780.5514063004 -2.55E-01
    22 OT SD       0.80E-01    1.5     0.00023055     -5780.6721140219 -1.21E-01
    23 OT DIIS     0.80E-01    1.6     0.00022187     -5780.6933828170 -2.13E-02
    24 OT DIIS     0.80E-01    1.5     0.00019599     -5780.8668182454 -1.73E-01
    25 OT DIIS     0.80E-01    1.5     0.00019333     -5780.9076280197 -4.08E-02
    26 OT DIIS     0.80E-01    1.5     0.00017342     -5781.0254254188 -1.18E-01
    27 OT DIIS     0.80E-01    1.5     0.00014914     -5781.1586607681 -1.33E-01
    28 OT DIIS     0.80E-01    1.5     0.00013177     -5781.2481818001 -8.95E-02
    29 OT DIIS     0.80E-01    1.5     0.00013464     -5781.2607332446 -1.26E-02
    30 OT DIIS     0.80E-01    1.5     0.00011978     -5781.2926996583 -3.20E-02
    31 OT DIIS     0.80E-01    1.5     0.00010494     -5781.3441518065 -5.15E-02
    32 OT DIIS     0.80E-01    1.5     0.00009399     -5781.3795299154 -3.54E-02
    33 OT DIIS     0.80E-01    1.5     0.00008412     -5781.4137834705 -3.43E-02
    34 OT DIIS     0.80E-01    1.5     0.00007812     -5781.4359740187 -2.22E-02
    35 OT DIIS     0.80E-01    1.5     0.00009387     -5781.4399682313 -3.99E-03
    36 OT DIIS     0.80E-01    1.5     0.00008478     -5781.4420497854 -2.08E-03
    37 OT DIIS     0.80E-01    1.5     0.00007280     -5781.4607129405 -1.87E-02
    38 OT DIIS     0.80E-01    1.5     0.00006993     -5781.4811619319 -2.04E-02
    39 OT DIIS     0.80E-01    1.5     0.00006905     -5781.4896341919 -8.47E-03
    40 OT DIIS     0.80E-01    1.5     0.00006833     -5781.5008587042 -1.12E-02

  Leaving inner SCF loop after reaching    40 steps.


  Electronic density on regular grids:      -1535.9999999999        0.0000000001
  Core density on regular grids:             1535.9999999995       -0.0000000005
  Total charge density on r-space grids:       -0.0000000005
  Total charge density g-space grids:          -0.0000000005

  Overlap energy of the core charge distribution:               0.00000000000391
  Self energy of the core charge distribution:             -12156.89556134359555
  Core Hamiltonian energy:                                   3263.63153537305107
  Hartree energy:                                            4027.66248243898826
  Exchange-correlation energy:                               -923.18076514170968

  DFT+U energy:                                                 7.28144996904853

  Total energy:                                             -5781.50085870421299

  outer SCF iter =    1 RMS gradient =   0.68E-04 energy =      -5781.5008587042

  ----------------------------------- OT ---------------------------------------
  Minimizer      : DIIS                : direct inversion
                                         in the iterative subspace
                                         using   7 DIIS vectors
                                         safer DIIS on
  Preconditioner : FULL_SINGLE_INVERSE : inversion of 
                                         H + eS - 2*(Sc)(c^T*H*c+const)(Sc)^T
  Precond_solver : DEFAULT
  stepsize       :    0.08000000                  energy_gap     :    0.08000000
  eps_taylor     :   0.10000E-15                  max_taylor     :             4
  ----------------------------------- OT ---------------------------------------

[...]
 flops    26 x    13 x    32          99237232640       0.0%    100.0%      0.0%     
 flops    13 x    26 x    32          99237232640       0.0%    100.0%      0.0%     
 flops    26 x    26 x    32         100787814400       0.0%    100.0%      0.0%     
 flops    96 x    32 x    32         116568096768       0.0%    100.0%      0.0%     
 flops    13 x    13 x    64         194117607424       0.0%    100.0%      0.0%     
 flops    26 x    13 x    64         198474465280       0.0%    100.0%      0.0%     
 flops    13 x    26 x    64         198474465280       0.0%    100.0%      0.0%     
 flops    26 x    26 x    64         201575628800       0.0%    100.0%      0.0%     
 flops    96 x    64 x    32         233136193536       0.0%    100.0%      0.0%     
 flops    96 x    32 x    64         233136193536       0.0%    100.0%      0.0%     
 flops   416 x    32 x    32         288769441792       0.0%    100.0%      0.0%     
 flops    96 x    64 x    64         466272387072       0.0%    100.0%      0.0%     
 flops   416 x    64 x    32         577538883584       0.0%    100.0%      0.0%     
 flops   416 x    32 x    64         577538883584       0.0%    100.0%      0.0%     
 flops    96 x    32 x   208         705429504000       0.0%    100.0%      0.0%     
 flops   416 x    32 x   208         802403909632       0.0%    100.0%      0.0%     
 flops   416 x    64 x    64        1155077767168       0.0%    100.0%      0.0%     
 flops    13 x    32 x    13        1216200360960       0.0%    100.0%      0.0%     
 flops    26 x    32 x    26        1254642155520       0.0%    100.0%      0.0%     
 flops    26 x    32 x    13        1254642155520       0.0%    100.0%      0.0%     
 flops    13 x    32 x    26        1254642155520       0.0%    100.0%      0.0%     
 flops    96 x    64 x   208        1412004052992       0.0%    100.0%      0.0%     
 flops   416 x    64 x   208        1610478518272       0.0%    100.0%      0.0%     
 flops inhomo. stacks                     2610452     100.0%      0.0%      0.0%
 flops total                        14.385594E+12       0.0%    100.0%      0.0%
 flops max/rank                    148.496555E+09       0.0%    100.0%      0.0%
 matmuls inhomo. stacks                      3786     100.0%      0.0%      0.0%
 matmuls total                          313719070       0.0%    100.0%      0.0%
 number of processed stacks               8885866       0.0%    100.0%      0.0%
 average stack size                                     1.0      35.3       0.0
 marketing flops                    15.655049E+12
 -------------------------------------------------------------------------------
 # multiplications                           4799
 max memory usage/rank             348.278784E+06
 # max total images/rank                        2
 # max 3D layers                                1
 # MPI messages exchanged                17813888
 MPI messages size (bytes):
  total size                         1.782614E+12
  min size                           0.000000E+00
  max size                         692.224000E+03
  average size                     100.068805E+03
 MPI breakdown and total messages size (bytes):
             size <=      128             5636128                   136576
       128 < size <=     8192             1014528               7082216672
      8192 < size <=    32768             3630560              82536816368
     32768 < size <=   131072             4032512             308393463808
    131072 < size <=  4194304             3500160            1384626200880
   4194304 < size <= 16777216                   0                        0
  16777216 < size                               0                        0
 -------------------------------------------------------------------------------

 *** WARNING in dbcsr_mm.F:301 :: Using a non-square number of MPI ranks ***
 *** might lead to poor performance. Used ranks: 128 Suggested: 121 256  ***

 -------------------------------------------------------------------------------
 -                                                                             -
 -                      DBCSR MESSAGE PASSING PERFORMANCE                      -
 -                                                                             -
 -------------------------------------------------------------------------------
 ROUTINE             CALLS      AVE VOLUME [Bytes]
 MP_Bcast               50                     12.
 MP_Allreduce        25098                     26.
 MP_Alltoall         17287                  29533.
 MP_ISend           302296                  49622.
 MP_IRecv           301788                  49144.
 -------------------------------------------------------------------------------

 -------------------------------------------------------------------------------
 -                                                                             -
 -                                DBM STATISTICS                               -
 -                                                                             -
 -------------------------------------------------------------------------------
    M  x    N  x    K                                          COUNT     PERCENT
 -------------------------------------------------------------------------------

 -------------------------------------------------------------------------------
 -                                                                             -
 -                                GRID STATISTICS                              -
 -                                                                             -
 -------------------------------------------------------------------------------
 LP    KERNEL             BACKEND                              COUNT     PERCENT
 5     collocate ortho    CPU                               21327928      25.42%
 5     integrate ortho    CPU                               21014282      25.04%
 6     collocate ortho    CPU                               10897136      12.99%
 6     integrate ortho    CPU                               10736884      12.80%
 4     collocate ortho    CPU                                9730664      11.60%
 4     integrate ortho    CPU                                9587566      11.43%
 0     integrate general  CPU                                 393216       0.47%
 0     collocate general  CPU                                 221184       0.26%
 2     collocate ortho    CPU                                   2560       0.00%
 3     collocate ortho    CPU                                   1536       0.00%
 -------------------------------------------------------------------------------

 MEMORY| Estimated peak process memory [MiB]                                 333

 -------------------------------------------------------------------------------
 ----                             MULTIGRID INFO                            ----
 -------------------------------------------------------------------------------
 count for grid        1:        1287111          cutoff [a.u.]          300.00
 count for grid        2:         980965          cutoff [a.u.]          100.00
 count for grid        3:         793931          cutoff [a.u.]           33.33
 count for grid        4:         536861          cutoff [a.u.]           11.11
 total gridlevel count  :        3598868

 -------------------------------------------------------------------------------
 -                                                                             -
 -                         MESSAGE PASSING PERFORMANCE                         -
 -                                                                             -
 -------------------------------------------------------------------------------

 ROUTINE             CALLS      AVE VOLUME [Bytes]
 MP_Group                4
 MP_Bcast             8443                  19554.
 MP_Allreduce        22511                    455.
 MP_Sync               804
 MP_Alltoall          2802                1860014.
 MP_SendRecv         35560                  11544.
 MP_ISendRecv        34036                  11544.
 MP_Wait             50580
 MP_comm_split         252
 MP_ISend            29984                  77955.
 MP_IRecv            29924                  78108.
 MP_Write_All            6                 355816.
 -------------------------------------------------------------------------------


 -------------------------------------------------------------------------------
 -                                                                             -
 -                           R E F E R E N C E S                               -
 -                                                                             -
 -------------------------------------------------------------------------------
 
 CP2K version 2024.3, the CP2K developers group (2024).
 CP2K is freely available from https://www.cp2k.org/ .
 
 T. D. Kuehne, M. Iannuzzi, M. Del Ben, V. V. Rybkin, P. Seewald, F. Stein, T. 
 Laino, R. Z. Khaliullin, O. Schuett, F. Schiffmann, D. Golze, J. Wilhelm, S. 
 Chulkov, M. H. Bani-Hashemian, V. Weber, U. Borstnik, M. Taillefumier, A. S. 
 Jakobovits, A. Lazzaro, H. Pabst, T. Mueller, R. Schade, M. Guidon, S. 
 Andermatt, N. Holmberg, G. K. Schenter, A. Hehn, A. Bussy, F. Belleflamme, G. 
 Tabacchi, A. Gloess, M. Lass, I. Bethune, C. J. Mundy, C. Plessl, M. Watkins, 
 J. VandeVondele, M. Krack, J. Hutter.
 J. Chem. Phys. 152, 194103 (2020).
 CP2K: An electronic structure and molecular dynamics software package - 
 Quickstep: Efficient and accurate electronic structure calculations.
 https://doi.org/10.1063/5.0007045

 O. Schuett, P. Messmer, J. Hutter, J. VandeVondele.
 Electronic Structure Calculations on Graphics Processing Units, 173-190 (2016).
 GPU-Accelerated Sparse Matrix-Matrix Multiplication for Linear Scaling Density 
 Functional Theory.
 https://doi.org/10.1002/9781118670712.ch8

 A. Heinecke, G. Henry, M. Hutchinson, H. Pabst.
 Proceedings of Intl. Supercomputing Conference, 981-991 (2016).
 LIBXSMM: Accelerating Small Matrix Multiplications by Runtime Code Generation.
 https://doi.org/10.1109/SC.2016.83

 J. Hutter, M. Iannuzzi, F. Schiffmann, J. VandeVondele.
 WIREs Comput Mol Sci. 4, 15-25 (2014).
 CP2K: atomistic simulations of condensed matter systems.
 https://doi.org/10.1002/wcms.1159

 U. Borstnik, J. VandeVondele, V. Weber, J. Hutter.
 Parallel Comput. 40, 47-58 (2014).
 Sparse matrix multiplication: The distributed block-compressed sparse row 
 library.
 https://doi.org/10.1016/j.parco.2014.03.012

 A. Marek, V. Blum, R. Johanni, V. Havu, B. Lang, T. Auckenthaler, A. Heinecke, 
 H. Bungartz, H. Lederer.
 J. Phys. Condens. Matter 26, 213201 (2014).
 The ELPA library: scalable parallel eigenvalue solutions for electronic 
 structure theory and computational science.
 https://doi.org/10.1088/0953-8984/26/21/213201

 J. VandeVondele, J. Hutter.
 J. Chem. Phys. 127, 114105 (2007).
 Gaussian basis sets for accurate calculations on molecular systems in gas and 
 condensed phases.
 https://doi.org/10.1063/1.2770708

 J. VandeVondele, M. Krack, F. Mohamed, M. Parrinello, T. Chassaing, J. Hutter.
 Comput. Phys. Commun. 167, 103-128 (2005).
 QUICKSTEP: Fast and accurate density functional calculations using a mixed 
 Gaussian and plane waves approach.
 https://doi.org/10.1016/j.cpc.2004.12.014

 M. Krack.
 Theor. Chem. Acc. 114, 145-152 (2005).
 Pseudopotentials for H to Kr optimized for gradient-corrected 
 exchange-correlation functionals.
 https://doi.org/10.1007/s00214-005-0655-y

 M. Frigo, S. G. Johnson.
 Proc. IEEE 93, 216-231 (2005).
 The design and implementation of FFTW3.
 https://doi.org/10.1109/JPROC.2004.840301

 J. VandeVondele, J. Hutter.
 J. Chem. Phys. 118, 4365-4369 (2003).
 An efficient orbital transformation method for electronic structure 
 calculations.
 https://doi.org/10.1063/1.1543154

 C. Hartwigsen, S. Goedecker, J. Hutter.
 Phys. Rev. B 58, 3641-3662 (1998).
 Relativistic separable dual-space Gaussian pseudopotentials from H to Rn.
 https://doi.org/10.1103/PhysRevB.58.3641

 S. L. Dudarev, G. A. Botton, S. Y. Savrasov, C. J. Humphreys, A. P. Sutton.
 Phys. Rev. B 57, 1505-1509 (1998).
 Electron-energy-loss spectra and the structural stability of nickel oxide: An 
 LSDA+U study.
 https://doi.org/10.1103/PhysRevB.57.1505

 G. Lippert, J. Hutter, M. Parrinello.
 Mol. Phys. 92, 477-487 (1997).
 A hybrid Gaussian and plane wave density functional scheme.
 https://doi.org/10.1080/002689797170220

 S. L. Dudarev, D. N. Manh, A. P. Sutton.
 Philos. Mag. B 75, 613-628 (1997).
 Effect of Mott-Hubbard correlations on the electronic structure and structural 
 stability of uranium dioxide.
 https://doi.org/10.1080/13642819708202343

 S. Goedecker, M. Teter, J. Hutter.
 Phys. Rev. B 54, 1703-1710 (1996).
 Separable dual-space Gaussian pseudopotentials.
 https://doi.org/10.1103/PhysRevB.54.1703

 J. P. Perdew, K. Burke, M. Ernzerhof.
 Phys. Rev. Lett. 77, 3865-3868 (1996).
 Generalized gradient approximation made simple.
 https://doi.org/10.1103/PhysRevLett.77.3865


 -------------------------------------------------------------------------------
 -                                                                             -
 -                                T I M I N G                                  -
 -                                                                             -
 -------------------------------------------------------------------------------
 SUBROUTINE                       CALLS  ASD         SELF TIME        TOTAL TIME
                                MAXIMUM       AVERAGE  MAXIMUM  AVERAGE  MAXIMUM
 CP2K                                 1  1.0    0.128    0.141  112.238  112.242
 qs_energies                          1  2.0    0.006    0.008  111.271  111.277
 scf_env_do_scf                       1  3.0    0.005    0.008   99.816   99.818
 scf_env_do_scf_inner_loop           67  4.0    0.007    0.018   96.627   96.690
 qs_ks_update_qs_env                 69  5.0    0.001    0.002   47.578   47.698
 rebuild_ks_matrix                   67  6.0    0.002    0.002   47.484   47.604
 qs_ks_build_kohn_sham_matrix        67  7.0    0.018    0.023   47.483   47.602
 sum_up_and_integrate                67  8.0    0.005    0.008   29.853   29.871
 integrate_v_rspace                 134  9.0    0.006    0.009   29.770   29.813
 qs_rho_update_rho_low               68  5.0    0.001    0.002   27.854   27.864
 calculate_rho_elec                 136  6.0    0.051    0.058   27.853   27.864
 dbcsr_multiply_generic            4799  9.2    0.176    0.183   23.078   23.655
 qs_scf_new_mos                      67  5.0    0.000    0.001   22.861   23.035
 qs_scf_loop_do_ot                   67  6.0    0.001    0.001   22.860   23.034
 grid_integrate_task_list           134 10.0   21.416   22.524   21.416   22.524
 ot_scf_mini                         67  7.0    0.003    0.005   21.392   21.517
 grid_collocate_task_list           136  7.0   20.050   21.070   20.050   21.070
 multiply_cannon                   4799 10.2    0.761    0.810   15.361   17.736
 fft_wrap_pw1pw2                   2242 10.3    0.044    0.052   14.814   16.670
 fft_wrap_pw1pw2_300               1420 11.8    0.560    0.632   13.758   15.573
 multiply_cannon_loop              4799 11.2    0.341    0.358   13.342   15.430
 qs_vxc_create                       67  8.0    0.002    0.004   14.117   14.229
 xc_vxc_pw_create                    67  9.0    0.257    0.328   14.115   14.228
 fft3d_ps                          2242 12.3    4.433    4.857   11.669   13.857
 ot_mini                            197  6.7    0.006    0.008   11.918   12.078
 xc_pw_derive                       804 11.0    0.007    0.008    9.545   11.197
 multiply_cannon_multrec          76784 12.2    6.308    9.929    6.324    9.946
 mp_waitall_1                    574828 13.3    6.671    9.685    6.671    9.685
 mp_alltoall_z22v                  2242 14.3    6.006    9.360    6.006    9.360
 qs_ot_get_p                        272  7.0    0.004    0.005    8.994    9.286
 scf_post_calculation_gpw             1  3.0    0.004    0.007    9.093    9.097
 qs_ot_get_derivative               200  8.3    0.001    0.001    8.630    8.726
 multiply_cannon_metrocomm3       76784 12.2    0.186    0.193    4.596    8.113
 density_rs2pw                      136  7.0    0.009    0.011    7.045    7.871
 xc_rho_set_and_dset_create          67 10.0    0.230    0.363    7.325    7.732
 xc_pw_divergence                   134 10.0    0.003    0.004    6.309    7.610
 potential_pw2rs                    134 10.0    0.011    0.013    6.823    6.872
 qs_ot_p2m_diag                     248  8.0    0.056    0.075    6.818    6.862
 cp_dbcsr_syevd                     248  9.0    0.077    0.084    5.802    5.807
 qs_ot_get_derivative_diag          180  9.4    0.004    0.005    5.609    5.700
 yz_to_x                            817 13.4    0.346    0.479    3.429    5.661
 cp_fm_diag_elpa                    128 10.9    0.001    0.002    5.389    5.409
 cp_fm_redistribute_end             252 11.0    2.730    5.383    2.750    5.395
 cp_fm_diag_elpa_base               128 11.9    2.575    5.162    2.589    5.197
 make_lumo_gpw                        1  4.0    0.001    0.002    5.058    5.059
 transfer_pw2rs                     538 11.0    0.007    0.009    5.018    5.040
 ot_eigensolver                       2  5.0    0.004    0.004    5.038    5.040
 transfer_rs2pw                     562  7.9    0.009    0.014    4.190    4.998
 make_m2s                          9598 10.2    0.132    0.143    4.723    4.961
 mp_waitany                       13240 11.4    3.568    4.708    3.568    4.708
 x_to_yz                            877 13.7    0.580    0.741    3.463    4.403
 make_images                       9598 11.2    0.257    0.279    3.823    4.031
 transfer_rs2pw_300                 142  8.9    0.944    1.261    2.669    3.656
 transfer_pw2rs_300                 136 11.9    1.708    1.793    3.470    3.650
 mp_sum_l                         23282 10.2    2.040    3.575    2.040    3.575
 init_scf_loop                        2  4.0    0.003    0.005    3.149    3.154
 write_available_results              1  4.0    0.002    0.003    3.105    3.109
 write_mo_free_results                1  5.0    0.135    0.142    3.064    3.070
 mp_alltoall_d11v                  3849 11.6    2.233    3.044    2.233    3.044
 apply_preconditioner_dbcsr         208  9.3    0.001    0.001    2.626    2.938
 apply_single                       208 10.3    0.001    0.001    2.625    2.938
 ot_diis_step                        67  9.0    0.014    0.017    2.718    2.720
 mp_irecv_dv                     160141 13.2    0.781    2.485    0.781    2.485
 xc_functional_eval                  67 11.0    0.001    0.001    2.150    2.471
 multiply_cannon_metrocomm4       71985 12.2    0.184    0.188    0.872    2.471
 pbe_lsd_eval                        67 12.0    2.148    2.470    2.148    2.470
 rs_gather_matrices                 134 10.0    0.062    0.079    1.525    2.321
 -------------------------------------------------------------------------------

 The number of warnings for this run is : 3
 
 -------------------------------------------------------------------------------
  **** **** ******  **  PROGRAM ENDED AT                 2025-06-22 05:27:27.941
 ***** ** ***  *** **   PROGRAM RAN ON                                 nid005636
 **    ****   ******    PROGRAM RAN BY                                    cahart
 ***** **    ** ** **   PROGRAM PROCESS ID                                249495
  **** **  *******  **  PROGRAM STOPPED IN /mnt/lustre/a2fs-work2/work/e05/e05/c
                                           ahart/postdoc2/work/group/tio2/anatas
                                           e/cell-441/geo-opt/mp-390/neutral-fro
                                           m-hole/pbe-u-o/u-2.6
