     192
 i =        1, E =     -5782.6571031194
Ti        -0.0006938848       -0.0007099160       -0.0000006408
Ti         1.8927382097        1.8927481665        4.8075072693
Ti        -0.0006621144        1.8927376398        2.4026323144
Ti         1.8927574211       -0.0006619122        7.2123738016
Ti        -0.0006425983        3.7811877572        0.0017018128
Ti         1.8927735025       13.2394785266        4.8063722138
Ti        11.3461019507        1.8927328076        2.4037126314
Ti         5.6738689025       -0.0006336705        7.2133640672
Ti         1.8927032308        3.7812365514        7.2106914087
Ti        -0.0006870206       13.2394724141        2.4037851128
Ti         5.6738906979        1.8927129751        4.8065206029
Ti        11.3460636506       -0.0006778190       -0.0010948907
Ti         3.7811968529       -0.0006430808       -0.0016943422
Ti        13.2394608107        1.8927663830        4.8086379914
Ti        13.2394892628       -0.0006881787        7.2112622743
Ti         3.7812336980        1.8927227528        2.4043355264
Ti         1.8927098353        5.6738920036        4.8084831849
Ti        -0.0006725870       11.3460767394        0.0010854501
Ti        -0.0006405200        5.6738681326        2.4016390764
Ti         1.8927478598       11.3461040058        7.2112961509
Ti        -0.0006314424        7.5650742405        0.0020958835
Ti         1.8927440622        9.4576935695        4.8080563196
Ti         7.5650817725        1.8927065318        2.4047311189
Ti         9.4577024155       -0.0006429842        7.2129356472
Ti         1.8927087823        7.5650806382        7.2102987647
Ti        -0.0006374676        9.4576946975        2.4020841406
Ti         9.4576809584        1.8927371355        4.8069661540
Ti         7.5650525552       -0.0006324373       -0.0020890514
Ti         3.7812257846        3.7812288563        0.0000034296
Ti        13.2394902417       13.2395062583        4.8075088941
Ti        11.3461480455        5.6738746867        2.4027403469
Ti         5.6738828281       11.3461351993        7.2122777024
Ti        13.2394357900        3.7812259169        7.2095654864
Ti         3.7812172468       13.2394315458        2.4054694458
Ti         5.6738897982        5.6738913153        4.8075137858
Ti        11.3460894862       11.3460991015        0.0000006292
Ti        11.3460871002       13.2394539486        2.4048690541
Ti         5.6738734408        3.7812357145        7.2116858793
Ti         3.7812291108       11.3461352962       -0.0006071181
Ti        13.2394339362        5.6738798555        4.8096353122
Ti         5.6738986302       13.2394444842        4.8053987396
Ti        11.3461177191        3.7812185875        0.0005990879
Ti        13.2394543449       11.3460689089        7.2101602804
Ti         3.7812324208        5.6738741357        2.4033444177
Ti         3.7812327973        7.5650796496        0.0004052096
Ti        13.2394684979        9.4577120813        4.8091930358
Ti         7.5650820456        5.6738638775        2.4037344157
Ti         9.4576768634       11.3461173792        7.2118410507
Ti        13.2394355310        7.5650710234        7.2091701979
Ti         3.7812265486        9.4576614838        2.4037853913
Ti         9.4576876914        5.6739021719        4.8079497235
Ti         7.5650750101       11.3461455286       -0.0009986349
Ti        11.3461340226        9.4576826076        2.4031778892
Ti         5.6738683290        7.5650742995        7.2112742669
Ti         5.6738904166        9.4577014376        4.8070630214
Ti        11.3461353648        7.5650659002        0.0009898253
Ti         9.4576746556        3.7812183586        7.2112382673
Ti         7.5650712670       13.2394287195        2.4058535196
Ti         7.5650645479        3.7812164204       -0.0004080737
Ti         9.4577116580       13.2394737888        4.8058267940
Ti         7.5650737731        7.5650745021        0.0000021200
Ti         9.4577050336        9.4577051680        4.8075128759
Ti         7.5650683928        9.4576828075        2.4041730279
Ti         9.4576717348        7.5650699373        7.2108446814
O         0.0012963736        0.0026880488        1.9933591087
O         1.8845538538        1.8897953876        6.7990652192
O         0.0026621678        1.8843417911        4.3963003613
O         1.8897247881        0.0013064389        9.2035696659
O         1.8843310372        0.0026786733        5.2187190456
O         0.0012938475        1.8897178546        0.4114352106
O         1.8897822448        1.8845379196        2.8159606099
O         0.0026971634        0.0013006400        7.6216567819
O         0.0012882801        3.7816867847        1.9933135350
O         1.8843486916       13.2360876233        6.8000413311
O        11.3490354971        1.8845014876        4.3952701208
O         5.6727830625        0.0012898962        9.2049384185
O         1.8847475229        3.7817059215        5.2186301044
O         0.0013215284       13.2360540496        0.4104100692
O         5.6728165114        1.8848290374        2.8144830041
O        11.3490925231        0.0012783055        7.6227263592
O         3.7816870442        0.0012822491        7.6217121477
O        13.2360911103        1.8843573236        2.8149846951
O        13.2360462486        0.0013262500        9.2046294133
O         3.7817136998        1.8847518586        4.3963974304
O         1.8848665321        5.6727989418        6.8005333539
O         0.0012871555       11.3490854766        1.9922865009
O         0.0012991606        5.6728022760        0.4100756057
O         1.8844899845       11.3490498100        5.2197407852
O         0.0012841603        7.5661871506        1.9936628797
O         1.8847422904        9.4572066296        6.8001258779
O         7.5661877948        1.8848304120        4.3967633893
O         9.4572113043        0.0012912670        9.2045610845
O         1.8848082478        7.5661870086        5.2182634472
O         0.0012811902        9.4572050195        0.4104623179
O         9.4571953127        1.8847418700        2.8148980239
O         7.5662015935        0.0012793289        7.6213678551
O         3.7751357440        0.0026451283        1.9920618337
O        13.2372093765        1.8897303651        6.7998173006
O         0.0026356011        5.6705877812        4.3955131508
O         1.8897780738       11.3541559999        9.2028477237
O        13.2371414311        0.0026977248        5.2178962147
O         3.7752546831        1.8898423762        0.4126132722
O         1.8898557345        5.6706432985        2.8166221129
O         0.0026576389       11.3543649712        7.6224415427
O        11.3541754019        1.8897835549        0.4121684265
O         5.6705686855        0.0026395105        5.2194939750
O         5.6706452399        1.8898503876        6.7983851559
O        11.3543713281        0.0026562360        1.9925869506
O         1.8898376806        3.7752508011        9.2024084935
O         0.0026974463       13.2371331462        4.3971394691
O         0.0026351312        3.7751116267        7.6229624003
O         1.8897251863       13.2372387977        2.8151908181
O         3.7753400174        3.7817218976        1.9923581151
O        13.2371831173       13.2360607779        6.8008506151
O        11.3489679738        5.6705989867        4.3945991139
O         5.6728078487       11.3538484524        9.2043055798
O        13.2372077035        3.7816961128        5.2179534650
O         3.7751367475       13.2361158566        0.4117099041
O         5.6728142432        5.6706438879        2.8148838046
O        11.3490433295       11.3541996125        7.6234710288
O        11.3543664938       13.2360794827        0.4111954041
O         5.6706046420        3.7817342367        5.2191198332
O         3.7817124544       11.3539424406        7.6223596732
O        13.2361233588        5.6706207470        2.8157633367
O         5.6706235085       13.2361320044        6.7992695563
O        11.3539359476        3.7816982595        1.9926595093
O        13.2360883566       11.3543600564        9.2038275384
O         3.7817201148        5.6706261785        4.3959209168
O         5.6706390680        5.6728241221        6.8001475819
O        11.3541620979       11.3490456062        1.9915479909
O        13.2361161761        3.7751640425        9.2033216676
O         3.7816970757       13.2371681647        4.3970743898
O        11.3538688828        5.6727998208        0.4107206022
O         5.6705911183       11.3489861126        5.2204220059
O         3.7817304297        3.7753246356        7.6226685910
O        13.2360644484       13.2371858975        2.8141494996
O        13.2371779594       11.3490974359        5.2189678089
O         3.7753929933        5.6728070246        0.4109473232
O         5.6728007472       13.2372632873        2.8138485160
O        11.3489919512        3.7752163360        7.6239064343
O         3.7752166246       11.3489854105        1.9911156235
O        13.2372364797        5.6728045936        6.8011799501
O        11.3490951560       13.2371666221        4.3960601869
O         5.6728174187        3.7753974978        9.2040744479
O         3.7753694303        7.5661626993        1.9927825014
O        13.2372531474        9.4572065784        6.8007967502
O         7.5661963817        5.6706116135        4.3963746156
O         9.4571950163       11.3539417037        9.2038973254
O        13.2372130910        7.5661940966        5.2176163597
O         3.7753280156        9.4571936377        0.4114365187
O         9.4571904594        5.6706474553        2.8153892093
O         7.5661776787       11.3538689545        7.6219953863
O        11.3539620091        9.4572030271        0.4111278334
O         5.6706095981        7.5661765597        5.2186389896
O         5.6706491052        9.4571757372        6.7996292903
O        11.3538538956        7.5661894677        1.9930267807
O         9.4571706505        3.7753516318        9.2035892289
O         7.5662015026       13.2371850582        4.3974117640
O         7.5661676552        3.7753663997        7.6222204385
O         9.4572100929       13.2372568190        2.8142234913
O         7.5686313311        0.0026282114        1.9917736545
O         9.4637059324        1.8898377347        6.7986658069
O         0.0026652292        9.4638012464        4.3958259534
O         1.8898671370        7.5685850629        9.2021571864
O         9.4637973403        0.0026569390        5.2191928835
O         7.5685984977        1.8898486408        0.4128751568
O         1.8898383614        9.4637252536        2.8163608989
O         0.0026384438        7.5686095142        7.6232403694
O         7.5685645206        3.7817261711        1.9921612549
O         9.4638164461       13.2361052918        6.7995629158
O        11.3490002121        9.4636863942        4.3948772958
O         5.6728100446        7.5685911523        9.2039091781
O         9.4635981499        3.7817307877        5.2189101773
O         7.5685980494       13.2361306990        0.4119790082
O         5.6727968680        9.4635488544        2.8147018356
O        11.3489605228        7.5685940842        7.6241513637
O         3.7817196025        7.5685689009        7.6228553632
O        13.2361230073        9.4638198336        2.8154579895
O        13.2361173383        7.5686116421        9.2030328159
O         3.7817362022        9.4635817065        4.3961123382
O         9.4635492349        5.6727994012        6.8003198472
O         7.5686082155       11.3489695114        1.9908597553
O         7.5685788940        5.6728132837        0.4111068270
O         9.4636819400       11.3489918080        5.2201468248
O         7.5685772494        7.5661737595        1.9926453481
O         9.4636103945        9.4571829466        6.7998459364
O         7.5661672839        9.4635154805        4.3965410743
O         9.4571815956        7.5685894729        9.2034045939
O         9.4635114027        7.5662002146        5.2184765780
O         7.5685806953        9.4571774386        0.4116234724
O         9.4571816158        9.4635911917        2.8151813773
O         7.5661794474        7.5685642672        7.6223807920
     192
 i =        2, E =     -5782.6576472859
Ti         0.0006046309        0.0005836169        0.0000036183
Ti         1.8905204461        1.8905358809        4.8075076174
Ti         0.0006032587        1.8904297820        2.4016064507
Ti         1.8904483089        0.0006076813        7.2134073256
Ti         0.0006099992        3.7786084103        0.0027830934
Ti         1.8904670926       13.2380328471        4.8053388724
Ti        11.3482379162        1.8905108594        2.4036894536
Ti         5.6728772906        0.0006161755        7.2153151447
Ti         1.8906094962        3.7786860560        7.2106159691
Ti         0.0006080208       13.2379974849        2.4037889810
Ti         5.6729163413        1.8906690278        4.8056106595
Ti        11.3482877312        0.0005821706       -0.0021016458
Ti         3.7786209706        0.0006131637       -0.0027750837
Ti        13.2380248771        1.8904675821        4.8096776635
Ti        13.2380135004        0.0006104157        7.2112474030
Ti         3.7786872498        1.8906213752        2.4044032634
Ti         1.8906662114        5.6729280859        4.8093980813
Ti         0.0005900631       11.3482922812        0.0020861211
Ti         0.0006101297        5.6728799699        2.3996895369
Ti         1.8905221428       11.3482417732        7.2113174906
Ti         0.0006137559        7.5661935544        0.0040303176
Ti         1.8906341313        9.4602731454        4.8080801931
Ti         7.5661941265        1.8906577715        2.4056221547
Ti         9.4602998523        0.0006189403        7.2139788966
Ti         1.8906613337        7.5661886991        7.2094036074
Ti         0.0006208956        9.4602976423        2.4010480377
Ti         9.4602651794        1.8906378543        4.8069388782
Ti         7.5661780784        0.0006105911       -0.0040207247
Ti         3.7787391487        3.7787448112        0.0000026279
Ti        13.2380246809       13.2380384599        4.8075253231
Ti        11.3481126722        5.6729014082        2.4017935053
Ti         5.6729096639       11.3481011660        7.2132263544
Ti        13.2380115664        3.7786449931        7.2084740029
Ti         3.7786437998       13.2380070739        2.4065609269
Ti         5.6729667837        5.6729751155        4.8075106706
Ti        11.3482264741       11.3482376952        0.0000036178
Ti        11.3483132897       13.2380164915        2.4058735039
Ti         5.6729306716        3.7787708730        7.2124456840
Ti         3.7786707119       11.3481414265       -0.0006984909
Ti        13.2380267022        5.6728971830        4.8115954626
Ti         5.6729104798       13.2380268589        4.8034354503
Ti        11.3481299141        3.7786598363        0.0006997402
Ti        13.2380192794       11.3482953196        7.2091488606
Ti         3.7787675903        5.6729365285        2.4025774952
Ti         3.7787607486        7.5661428083        0.0011512664
Ti        13.2380389189        9.4603177521        4.8102408590
Ti         7.5661407323        5.6729426300        2.4037172450
Ti         9.4602589923       11.3481425217        7.2118862960
Ti        13.2380249323        7.5662006471        7.2072218715
Ti         3.7787472502        9.4601791361        2.4038225387
Ti         9.4601837440        5.6729650904        4.8087534537
Ti         7.5661828106       11.3481055809       -0.0019273805
Ti        11.3481521320        9.4602534978        2.4031223611
Ti         5.6729487295        7.5661332959        7.2112904140
Ti         5.6729569372        9.4601901642        4.8062485900
Ti        11.3480992629        7.5661757006        0.0019183954
Ti         9.4601791498        3.7787409458        7.2111912004
Ti         7.5662073511       13.2380181735        2.4077992877
Ti         7.5661357937        3.7787535897       -0.0011539936
Ti         9.4603199287       13.2380479906        4.8047811736
Ti         7.5661278676        7.5661295866        0.0000025381
Ti         9.4602201017        9.4602137016        4.8075101317
Ti         7.5661522802        9.4601697676        2.4049651765
Ti         9.4601648878        7.5661517850        7.2100529474
O         0.0010834890        0.0017761235        1.9936036807
O         1.8840777023        1.8890843836        6.7986437842
O         0.0018193434        1.8839722222        4.3966259159
O         1.8890230716        0.0011388668        9.2031109951
O         1.8839788694        0.0018296092        5.2183967765
O         0.0011336885        1.8890172553        0.4119038799
O         1.8890743776        1.8840726548        2.8163805986
O         0.0017742699        0.0010825692        7.6214186676
O         0.0011625377        3.7787757663        1.9941132877
O         1.8839953570       13.2367705045        6.8003588205
O        11.3496414502        1.8840627893        4.3948295410
O         5.6715786759        0.0011970305        9.2061577807
O         1.8840746150        3.7788509142        5.2177881411
O         0.0010936632       13.2368033827        0.4101709044
O         5.6716272567        1.8841321520        2.8132506937
O        11.3496850541        0.0011232943        7.6232172645
O         3.7787722179        0.0011585832        7.6209052280
O        13.2367676391        1.8839923530        2.8146716542
O        13.2368017652        0.0010904430        9.2048466941
O         3.7788566017        1.8840830854        4.3972256734
O         1.8841412809        5.6715988426        6.8017739055
O         0.0011300179       11.3496849389        1.9917963169
O         0.0011942020        5.6715974618        0.4088643963
O         1.8840672337       11.3496433685        5.2201825516
O         0.0011883404        7.5675274496        1.9948561688
O         1.8840926422        9.4600902432        6.8009216932
O         7.5675135938        1.8841294164        4.3979789773
O         9.4601602565        0.0011652272        9.2053259392
O         1.8841206617        7.5675153250        5.2170504790
O         0.0011645819        9.4601361907        0.4097016691
O         9.4600749065        1.8840863616        2.8141010298
O         7.5675390834        0.0011857761        7.6201752101
O         3.7680160243        0.0019039908        1.9925646819
O        13.2372908456        1.8890191349        6.7993437658
O         0.0019459717        5.6654367694        4.3955765795
O         1.8890661207       11.3544282209        9.2024254048
O        13.2373211445        0.0017793435        5.2176560742
O         3.7682722767        1.8892057969        0.4128301122
O         1.8892566360        5.6655781237        2.8172284798
O         0.0018130269       11.3545110898        7.6221168712
O        11.3544275645        1.8890715693        0.4125866407
O         5.6654102070        0.0019405702        5.2194298052
O         5.6655887788        1.8892433602        6.7977837653
O        11.3545064453        0.0018156553        1.9929094788
O         1.8891955509        3.7682715077        9.2021885644
O         0.0017786336       13.2373195341        4.3973580926
O         0.0018995635        3.7679985787        7.6224540559
O         1.8890171225       13.2373075479        2.8156716305
O         3.7684750547        3.7789795862        1.9934670374
O        13.2373344124       13.2368167303        6.8010804352
O        11.3494748229        5.6655022814        4.3939639691
O         5.6716080610       11.3543802555        9.2055551397
O        13.2372454443        3.7787894029        5.2171566573
O         3.7680245819       13.2366894553        0.4112128996
O         5.6716686060        5.6656061793        2.8135236882
O        11.3496524927       11.3544308251        7.6239089371
O        11.3545018383       13.2367590701        0.4108702004
O         5.6655185743        3.7790589501        5.2182215146
O         3.7788499663       11.3544306419        7.6215210515
O        13.2366564224        5.6655047398        2.8157065686
O         5.6655145738       13.2366707425        6.7993168491
O        11.3544201491        3.7788369579        1.9935047154
O        13.2367696697       11.3545007530        9.2041452172
O         3.7790366342        5.6655541227        4.3968067039
O         5.6656028701        5.6716839291        6.8015065265
O        11.3544205988       11.3496490944        1.9911179935
O        13.2366934003        3.7680477253        9.2038106751
O         3.7787745807       13.2372359398        4.3978669804
O        11.3543870963        5.6716024963        0.4094719214
O         5.6654849563       11.3494805540        5.2210613618
O         3.7789984112        3.7684578366        7.6215671589
O        13.2368133777       13.2373357863        2.8139417590
O        13.2372767250       11.3496865489        5.2194680780
O         3.7686306948        5.6716420369        0.4094553723
O         5.6716018895       13.2372508835        2.8126320867
O        11.3495302742        3.7682308486        7.6241553314
O         3.7682377980       11.3495365337        1.9908748157
O        13.2372391692        5.6715964062        6.8023954088
O        11.3496943587       13.2372717876        4.3955529097
O         5.6716650834        3.7686294059        9.2055661500
O         3.7685983314        7.5674544127        1.9942535171
O        13.2372683716        9.4601543580        6.8015547410
O         7.5674711124        5.6655369314        4.3977086956
O         9.4600779616       11.3544264749        9.2046935090
O        13.2372278934        7.5675309960        5.2164253442
O         3.7684626673        9.4599458271        0.4103730683
O         9.4598902035        5.6655938647        2.8145432648
O         7.5675047445       11.3543904391        7.6207705918
O        11.3544383038        9.4600926681        0.4103264823
O         5.6655366133        7.5674422276        5.2173101881
O         5.6655998081        9.4598793279        6.8004687141
O        11.3543859329        7.5675153340        1.9942475975
O         9.4599320241        3.7684785784        9.2046445689
O         7.5675360568       13.2372167853        4.3986041898
O         7.5674475388        3.7685918463        7.6207532195
O         9.4601571582       13.2372778162        2.8134733592
O         7.5742300338        0.0019351597        1.9918463005
O         9.4704582002        1.8892008836        6.7984583631
O         0.0019066966        9.4706797673        4.3963420133
O         1.8892596514        7.5741202709        9.2015645560
O         9.4706766235        0.0019035533        5.2186788142
O         7.5741354814        1.8892464217        0.4134566868
O         1.8892016538        9.4704670874        2.8165668081
O         0.0019462404        7.5741935631        7.6231678106
O         7.5740679045        3.7790496099        1.9930654938
O         9.4706970643       13.2366966040        6.8000685594
O        11.3495316311        9.4704438190        4.3946406367
O         5.6716595065        7.5740967527        9.2052710716
O         9.4702329167        3.7789780532        5.2177996528
O         7.5741743137       13.2366567999        0.4119178397
O         5.6716392732        9.4701031721        2.8131995868
O        11.3494676627        7.5741268792        7.6247811139
O         3.7790425990        7.5740810620        7.6219493628
O        13.2367047072        9.4707057058        2.8149503578
O        13.2366492505        7.5742001295        9.2030874197
O         3.7789830228        9.4702190200        4.3972207331
O         9.4701009931        5.6716466592        6.8018113990
O         7.5741493979       11.3494759520        1.9902346531
O         7.5740716006        5.6716732086        0.4097490356
O         9.4704376104       11.3495166940        5.2203768319
O         7.5740624018        7.5674465315        1.9939731301
O         9.4702574787        9.4599626369        6.8009092941
O         7.5674442798        9.4700806649        4.3980102526
O         9.4598823723        7.5741110265        9.2042515252
O         9.4700694082        7.5674828066        5.2170087274
O         7.5740920179        9.4598736423        0.4107792326
O         9.4599533404        9.4702505637        2.8141200135
O         7.5674587766        7.5740451890        7.6210510447
     192
 i =        3, E =     -5782.6579526261
Ti         0.0006738240        0.0006553337        0.0000014199
Ti         1.8889613791        1.8889750396        4.8075059262
Ti         0.0007049549        1.8888819185        2.4020070150
Ti         1.8889041596        0.0007058610        7.2130105269
Ti         0.0007472412        3.7758113137        0.0028743400
Ti         1.8889223436       13.2378500269        4.8057342028
Ti        11.3497258113        1.8889508942        2.4036952769
Ti         5.6713021783        0.0007882265        7.2159320569
Ti         1.8890436874        3.7759033271        7.2100938703
Ti         0.0006789249       13.2378475475        2.4037915738
Ti         5.6713398768        1.8891502728        4.8045563932
Ti        11.3497591448        0.0006831289       -0.0017074609
Ti         3.7758232183        0.0007487906       -0.0028654192
Ti        13.2378444801        1.8889191742        4.8092802951
Ti        13.2378667354        0.0006822761        7.2112476828
Ti         3.7759063655        1.8890548611        2.4049248388
Ti         1.8891488957        5.6713522060        4.8104532802
Ti         0.0006906734       11.3497675663        0.0016872516
Ti         0.0007840722        5.6713042080        2.3990745095
Ti         1.8889629323       11.3497266950        7.2113188599
Ti         0.0007874007        7.5679029341        0.0046126594
Ti         1.8890671090        9.4630361515        4.8085716396
Ti         7.5679015283        1.8891384238        2.4066411282
Ti         9.4630777824        0.0007494149        7.2140406871
Ti         1.8891407379        7.5678928343        7.2083816797
Ti         0.0007481632        9.4630785258        2.4009870510
Ti         9.4630291287        1.8890744079        4.8064471509
Ti         7.5678902265        0.0007836392       -0.0046035198
Ti         3.7760063368        3.7760087988       -0.0000005446
Ti        13.2378785209       13.2378911207        4.8075255957
Ti        11.3495579761        5.6713307222        2.4007403492
Ti         5.6713373540       11.3495456848        7.2142764978
Ti        13.2377897965        3.7758431904        7.2083823063
Ti         3.7758453421       13.2377863574        2.4066507201
Ti         5.6714160832        5.6714243243        4.8075088182
Ti        11.3497134543       11.3497220049        0.0000016953
Ti        11.3497844131       13.2378383459        2.4054805715
Ti         5.6713577161        3.7760871100        7.2129378438
Ti         3.7758870217       11.3496347246       -0.0012149749
Ti        13.2377726999        5.6713181566        4.8122087824
Ti         5.6713292687       13.2377730854        4.8028164656
Ti        11.3496234263        3.7758778947        0.0012147675
Ti        13.2378379466       11.3497673817        7.2095478035
Ti         3.7760826538        5.6713640221        2.4020817144
Ti         3.7760762020        7.5678488549        0.0016193479
Ti        13.2378192787        9.4631003916        4.8103016546
Ti         7.5678178808        5.6713988980        2.4036905262
Ti         9.4630205920       11.3496322031        7.2123722438
Ti        13.2377701936        7.5679122707        7.2066396425
Ti         3.7760100859        9.4628944904        2.4038512893
Ti         9.4628420630        5.6713864583        4.8092845022
Ti         7.5678856178       11.3495550412       -0.0029444511
Ti        11.3496390113        9.4630160251        2.4026332616
Ti         5.6714030632        7.5678110504        7.2113177923
Ti         5.6713808352        9.4628487190        4.8057210518
Ti        11.3495501529        7.5678801143        0.0029357329
Ti         9.4628910060        3.7760080997        7.2111589607
Ti         7.5679216849       13.2377649333        2.4083838626
Ti         7.5678419218        3.7760735131       -0.0016220198
Ti         9.4630982720       13.2378342871        4.8047186678
Ti         7.5678058737        7.5678088076        0.0000032145
Ti         9.4629319168        9.4629310405        4.8075071433
Ti         7.5678619338        9.4628293489        2.4054666048
Ti         9.4628274241        7.5678586901        7.2095504373
O         0.0013982077        0.0016939782        1.9931523112
O         1.8845718671        1.8876752130        6.7989842516
O         0.0017081549        1.8844507012        4.3974617323
O         1.8876086563        0.0014601949        9.2022183003
O         1.8844518888        0.0017111994        5.2175635262
O         0.0014590969        1.8876076961        0.4128039267
O         1.8876722003        1.8845734467        2.8160350669
O         0.0016952201        0.0013987770        7.6218658276
O         0.0014609869        3.7767609266        1.9927589301
O         1.8844487005       13.2368098752        6.8012172778
O        11.3509851115        1.8845750633        4.3952421168
O         5.6709036534        0.0014500435        9.2058649491
O         1.8845752572        3.7768070647        5.2178659205
O         0.0013952117       13.2368184672        0.4105953889
O         5.6709489290        1.8845627503        2.8122910283
O        11.3510445188        0.0014614243        7.6240496077
O         3.7767615202        0.0014635581        7.6222555393
O        13.2368096337        1.8844484731        2.8138040568
O        13.2368161308        0.0013932006        9.2044201826
O         3.7768136995        1.8845795554        4.3971441355
O         1.8845623866        5.6709209792        6.8027319176
O         0.0014624854       11.3510461919        1.9909633621