     192
 i =        1, E =     -5782.6571031194
Ti         0.0006650181        0.0006645934        0.0000002453
Ti        -0.0007029269       -0.0006977242        0.0000015536
Ti         0.0006659560       -0.0007248704       -0.0005886223
Ti        -0.0007255119        0.0006692256        0.0005920578
Ti         0.0006700323       -0.0011848493        0.0002864919
Ti        -0.0007255162       -0.0007116455       -0.0005893990
Ti         0.0006895326       -0.0007053911        0.0000028498
Ti        -0.0002345394        0.0006762074        0.0004174249
Ti        -0.0006757409       -0.0011736282        0.0002946339
Ti         0.0006658210       -0.0007095020        0.0000001389
Ti        -0.0002418230       -0.0006576575        0.0001749703
Ti         0.0007089708        0.0006649073       -0.0005874582
Ti        -0.0011872280        0.0006719778       -0.0002842088
Ti        -0.0007092309       -0.0007238794        0.0005930201
Ti        -0.0007077363        0.0006661809       -0.0000040964
Ti        -0.0011747262       -0.0006820528       -0.0002967651
Ti        -0.0006613613       -0.0002388559       -0.0001704542
Ti         0.0006653907        0.0007085272        0.0005867186
Ti         0.0006758856       -0.0002353473       -0.0004143366
Ti        -0.0007106643        0.0006878455        0.0000000542
Ti         0.0006739870        0.0002758922        0.0004152961
Ti        -0.0006826337        0.0011882127       -0.0002986272
Ti         0.0002821623       -0.0006646747       -0.0001738545
Ti         0.0011956421        0.0006682791        0.0002841824
Ti        -0.0006633759        0.0002794468        0.0001711244
Ti         0.0006698818        0.0011968692       -0.0002806881
Ti         0.0011912450       -0.0006747648        0.0002991157
Ti         0.0002801271        0.0006732955       -0.0004171560
Ti        -0.0011585950       -0.0011566557       -0.0000030097
Ti        -0.0007037430       -0.0007057517        0.0000050677
Ti         0.0006435730       -0.0002368983        0.0001710969
Ti        -0.0002382010        0.0006438961       -0.0001707346
Ti        -0.0007105842       -0.0011917445       -0.0002888854
Ti        -0.0011875232       -0.0007122270        0.0002870478
Ti        -0.0002393758       -0.0002378391       -0.0000015226
Ti         0.0006912281        0.0006872751       -0.0000001895
Ti         0.0007082286       -0.0007084773        0.0005891277
Ti        -0.0002428054       -0.0011471432        0.0001139840
Ti        -0.0011774564        0.0006590309        0.0002989021
Ti        -0.0007105821       -0.0002324111        0.0004145941
Ti        -0.0002354203       -0.0007119141       -0.0004165563
Ti         0.0006622040       -0.0011750574       -0.0002941791
Ti        -0.0007061427        0.0007124187       -0.0005921540
Ti        -0.0011464898       -0.0002408075       -0.0001154497
Ti        -0.0011479664        0.0002806516        0.0001157855
Ti        -0.0007102491        0.0011995428        0.0002832002
Ti         0.0002838062       -0.0002358725        0.0000019150
Ti         0.0011876536        0.0006631077       -0.0003034453
Ti        -0.0007132406        0.0002807467       -0.0004196796
Ti        -0.0011557990        0.0011709991       -0.0000000435
Ti         0.0011574186       -0.0002373625        0.0001210571
Ti         0.0002803746        0.0006434729        0.0001697739
Ti         0.0006600954        0.0011821668        0.0003005594
Ti        -0.0002384420        0.0002827038       -0.0000018609
Ti        -0.0002316954        0.0011540290       -0.0001195125
Ti         0.0006444182        0.0002823676       -0.0001671276
Ti         0.0011667320       -0.0011523723       -0.0000054645
Ti         0.0002819548       -0.0007109739        0.0004190519
Ti         0.0002819914       -0.0011445326       -0.0001169803
Ti         0.0011990006       -0.0007126655       -0.0002820334
Ti         0.0002818992        0.0002806106        0.0000015281
Ti         0.0011678780        0.0011679722       -0.0000034015
Ti         0.0002874662        0.0011503764        0.0001254501
Ti         0.0011555766        0.0002819374       -0.0001242690
O        -0.0001351445        0.0000348345       -0.0001121513
O         0.0004152574        0.0002765600        0.0001477213
O         0.0000575796        0.0004485971        0.0002402028
O         0.0002999321       -0.0001283091       -0.0001745674
O         0.0004522538        0.0000511394       -0.0002407430
O        -0.0001261545        0.0003013040        0.0001781870
O         0.0002825274        0.0004182237       -0.0001495695
O         0.0000305114       -0.0001363130        0.0001139468
O        -0.0001204496       -0.0006420408       -0.0001523838
O         0.0004508077       -0.0000668923        0.0002439279
O        -0.0003016209        0.0004252319        0.0001579779
O        -0.0001351279       -0.0001152457       -0.0003200429
O         0.0003685579       -0.0006403148       -0.0001596742
O        -0.0001394387       -0.0000432562        0.0001088465
O        -0.0001367946        0.0003586025        0.0000184355
O        -0.0003184496       -0.0001241528        0.0001716822
O        -0.0006412434       -0.0001196950        0.0001481622
O        -0.0000709434        0.0004482555       -0.0002472080
O        -0.0000398130       -0.0001410689       -0.0001146151
O        -0.0006403109        0.0003689105        0.0001555995
O         0.0003511975       -0.0001360097       -0.0000170055
O        -0.0001251715       -0.0003136360       -0.0001685918
O        -0.0001178997       -0.0001374762        0.0003211800
O         0.0004287312       -0.0003056525       -0.0001572664
O        -0.0001153106        0.0001564470       -0.0003184040
O         0.0003728118        0.0006333423        0.0001650240
O         0.0001530701        0.0003577973       -0.0000136777
O         0.0006384612       -0.0001206810       -0.0001451457
O         0.0003616560        0.0001541167        0.0000138730
O        -0.0001184400        0.0006362291        0.0001446338
O         0.0006336430        0.0003718318       -0.0001659278
O         0.0001526980       -0.0001145598        0.0003162158
O        -0.0006195687        0.0000936982        0.0003071565
O         0.0001416108        0.0002966656       -0.0001789516
O         0.0001145546       -0.0006133054        0.0003262568
O         0.0002837539       -0.0004355873        0.0001418642
O         0.0001628357        0.0000294040        0.0001181730
O        -0.0006060631        0.0002942280       -0.0002151494
O         0.0003186510       -0.0006030859       -0.0002483005
O         0.0000603861       -0.0004719522       -0.0002330356
O        -0.0004402943        0.0002812847       -0.0001431648
O        -0.0006131085        0.0001123807       -0.0003252615
O        -0.0006017783        0.0003174888        0.0002498073
O        -0.0004741626        0.0000600640        0.0002304053
O         0.0002943012       -0.0006052943        0.0002166556
O         0.0000311280        0.0001645816       -0.0001239414
O         0.0000957648       -0.0006166863       -0.0003078010
O         0.0002993094        0.0001374138        0.0001834021
O        -0.0005931576       -0.0006152670        0.0002441978
O         0.0001551235       -0.0000435170       -0.0001123206
O        -0.0003342372       -0.0006050852        0.0002560823
O        -0.0001366280       -0.0003701336       -0.0000200617
O         0.0001348617       -0.0006415377        0.0001554885
O        -0.0006183820       -0.0001058893       -0.0003106012
O        -0.0001233158       -0.0005983695       -0.0001835452
O        -0.0003018897       -0.0004455340       -0.0001525099
O        -0.0004738001       -0.0000653111       -0.0002387136
O        -0.0006035348       -0.0005916796       -0.0003286765
O        -0.0006403346       -0.0003842809       -0.0001537091
O        -0.0001264607       -0.0006099453       -0.0003299082
O        -0.0006089795       -0.0001264928        0.0003263513
O        -0.0003844444       -0.0006397644        0.0001535100
O        -0.0000685633       -0.0004724772        0.0002388576
O        -0.0005892133       -0.0006028388        0.0003229231
O        -0.0005977506       -0.0001238879        0.0001835614
O        -0.0004382713       -0.0003008670        0.0001545001
O        -0.0001050038       -0.0006210334        0.0003087061
O        -0.0006450318        0.0001427102       -0.0001565537
O        -0.0003738566       -0.0001363338        0.0000188229
O        -0.0006060660       -0.0003413358       -0.0002545983
O        -0.0006145522       -0.0005923337       -0.0002419256
O        -0.0000467456        0.0001547018        0.0001172533
O         0.0001466846       -0.0003228309        0.0001756148
O        -0.0005801548       -0.0001294318       -0.0000683529
O        -0.0001356574        0.0001226419        0.0003204878
O        -0.0003133617       -0.0006037504       -0.0002214881
O        -0.0006027134       -0.0003079801        0.0002231433
O         0.0001270630       -0.0001382265       -0.0003207003
O        -0.0003202907        0.0001485875       -0.0001782241
O        -0.0001275892       -0.0005814633        0.0000696359
O        -0.0005799092        0.0001495057        0.0000732014
O         0.0001278470        0.0006388751       -0.0001457855
O         0.0001355434       -0.0006021241        0.0001832894
O         0.0006328566       -0.0003847798        0.0001618230
O         0.0001307536        0.0001521777        0.0003192442
O        -0.0005923468        0.0006051083       -0.0002499048
O         0.0005785177       -0.0006013846       -0.0003326068
O         0.0001546055       -0.0003733434        0.0000183412
O        -0.0003876378        0.0006344891       -0.0001631197
O        -0.0006017025        0.0001378948       -0.0001817433
O        -0.0006008115        0.0005835971        0.0003312320
O        -0.0003704707        0.0001540692       -0.0000197531
O         0.0006100652       -0.0005953530        0.0002488108
O         0.0001507403        0.0001355772       -0.0003201585
O         0.0001467108       -0.0005802564       -0.0000690903
O         0.0006377944        0.0001285297        0.0001472977
O         0.0006625083        0.0001180147        0.0003277013
O         0.0005630269        0.0002919996        0.0002122775
O         0.0000844288        0.0005764234        0.0003043555
O         0.0003142461        0.0006553726        0.0002508792
O         0.0005768143        0.0000854038       -0.0003040378
O         0.0006546523        0.0003204257       -0.0002536138
O         0.0002944194        0.0005598784       -0.0002131693
O         0.0001160158        0.0006617063       -0.0003248123
O         0.0006514495       -0.0005906088        0.0003268638
O         0.0005756651       -0.0000974729        0.0003087777
O        -0.0003155099        0.0005653228        0.0002197698
O        -0.0001233036        0.0006497783        0.0001804133
O         0.0005517391       -0.0006233834       -0.0002380691
O         0.0006612532       -0.0001300965       -0.0003272615
O        -0.0001295509        0.0005421533       -0.0000649316
O        -0.0003311377        0.0006542746       -0.0002531600
O        -0.0005873414        0.0006526021       -0.0003268345
O        -0.0001039784        0.0005762949       -0.0003095068
O        -0.0001235962        0.0006622709        0.0003279579
O        -0.0006236472        0.0005533547        0.0002386286
O         0.0005417216       -0.0001276691        0.0000627326
O         0.0006546227       -0.0003315912        0.0002545395
O         0.0006485248       -0.0001222649       -0.0001795969
O         0.0005653376       -0.0003150685       -0.0002198531
O         0.0006473954        0.0001401466        0.0001757400
O         0.0005529013        0.0006141617        0.0002445269
O         0.0001424607        0.0005464010        0.0000647740
O         0.0005806957        0.0006526379        0.0003291538
O         0.0005454847        0.0001408096       -0.0000634454
O         0.0006515872        0.0005819373       -0.0003306057
O         0.0006109072        0.0005563460       -0.0002432846
O         0.0001393081        0.0006476674       -0.0001769017
     192
 i =        2, E =     -5782.6576472859
Ti         0.0000605511        0.0000637272       -0.0000020343
Ti        -0.0005291680       -0.0005306320        0.0000000797
Ti         0.0000604555       -0.0005282469        0.0004964851
Ti        -0.0005321825        0.0000614247       -0.0004957550
Ti         0.0000651415       -0.0010622958        0.0000332722
Ti        -0.0005328127       -0.0000742765        0.0004863467
Ti         0.0004990065       -0.0005322422       -0.0000166641
Ti        -0.0006823339        0.0000608192       -0.0000636510
Ti        -0.0005289264       -0.0010606306       -0.0005276455
Ti         0.0000616948       -0.0000744291        0.0000088327
Ti        -0.0006758158       -0.0005373916       -0.0004449065
Ti         0.0005010438        0.0000623659        0.0005182233
Ti        -0.0010667673        0.0000648095       -0.0000307092
Ti        -0.0000759042       -0.0005323531       -0.0004838293
Ti        -0.0000753928        0.0000630798       -0.0000099655
Ti        -0.0010598529       -0.0005326875        0.0005298905
Ti        -0.0005397847       -0.0006781395        0.0004489422
Ti         0.0000617890        0.0004991882       -0.0005147381
Ti         0.0000609682       -0.0006842383        0.0000670477
Ti        -0.0005323401        0.0004994137        0.0000217124
Ti         0.0000596248        0.0007415237       -0.0000674289
Ti        -0.0005303826        0.0010416008        0.0005187746
Ti         0.0007308941       -0.0005393869        0.0004455647
Ti         0.0010488596        0.0000624710        0.0000220058
Ti        -0.0005394483        0.0007300056       -0.0004490560
Ti         0.0000635875        0.0010487444       -0.0000224575
Ti         0.0010439677       -0.0005310609       -0.0005180680
Ti         0.0007463138        0.0000603631        0.0000621175
Ti        -0.0010473843       -0.0010498624       -0.0000021982
Ti        -0.0000749519       -0.0000785854       -0.0000016224
Ti         0.0005067628       -0.0006741274       -0.0004646031
Ti        -0.0006761178        0.0005081501        0.0004626760
Ti        -0.0000796674       -0.0010711140       -0.0000442886
Ti        -0.0010701099       -0.0000768534        0.0000427311
Ti        -0.0006710286       -0.0006731852       -0.0000022016
Ti         0.0005015961        0.0004973805       -0.0000019532
Ti         0.0004988539       -0.0000737097       -0.0005039619
Ti        -0.0006671858       -0.0010548637       -0.0000653549
Ti        -0.0010610742        0.0004998946       -0.0005469821
Ti        -0.0000758973       -0.0006846360       -0.0000611197
Ti        -0.0006883004       -0.0000758794        0.0000576314
Ti         0.0004996383       -0.0010578669        0.0005456513
Ti        -0.0000747407        0.0005015612        0.0005045099
Ti        -0.0010542198       -0.0006688613        0.0000627819
Ti        -0.0010525988        0.0007255592       -0.0000612988
Ti        -0.0000811482        0.0010486615        0.0000303943
Ti         0.0007269484       -0.0006658382        0.0000023289
Ti         0.0010439550        0.0005002667        0.0005364792
Ti        -0.0000780897        0.0007449171        0.0000573688
Ti        -0.0010503394        0.0010344906        0.0000102617
Ti         0.0010370515       -0.0006704360       -0.0000463219
Ti         0.0007308949        0.0005059288       -0.0004634418
Ti         0.0004985452        0.0010442334       -0.0005355328
Ti        -0.0006679833        0.0007286172        0.0000019363
Ti        -0.0006704994        0.0010346602        0.0000537600
Ti         0.0005080552        0.0007333935        0.0004656660
Ti         0.0010328685       -0.0010464353       -0.0000103581
Ti         0.0007447232       -0.0000767086       -0.0000565025
Ti         0.0007258260       -0.0010513842        0.0000612151
Ti         0.0010494207       -0.0000847505       -0.0000299739
Ti         0.0007268388        0.0007269024       -0.0000005679
Ti         0.0010263980        0.0010307394       -0.0000029137
Ti         0.0007252405        0.0010356068       -0.0000471463
Ti         0.0010380641        0.0007242166        0.0000474481
O         0.0000271865        0.0000273593       -0.0002808550
O         0.0003022978       -0.0000042730        0.0003785801
O         0.0000088549        0.0003002247        0.0000747095
O         0.0000089629        0.0000254149        0.0000423813
O         0.0002987125        0.0000044708       -0.0000751419
O         0.0000260409        0.0000105126       -0.0000406438
O         0.0000007039        0.0003032441       -0.0003804258
O         0.0000316155        0.0000275765        0.0002805558
O         0.0000198149        0.0002303739       -0.0006405356
O         0.0002950829        0.0000175857        0.0000848055
O         0.0000062959        0.0003047313        0.0004074168
O         0.0000952918        0.0000104619       -0.0005792252
O         0.0003081776        0.0002094715        0.0003032686
O         0.0000251311       -0.0000049893        0.0002717684
O         0.0000881087        0.0002958250        0.0002494217
O         0.0000005161        0.0000282626       -0.0000678998
O         0.0002342736        0.0000209421        0.0006393911
O         0.0000174619        0.0002959172       -0.0000895407
O        -0.0000013666        0.0000256062       -0.0002708943
O         0.0002062803        0.0003071626       -0.0003038978
O         0.0002947371        0.0000953367       -0.0002514932
O         0.0000272136        0.0000000638        0.0000686577
O         0.0000104366        0.0000892897        0.0005781797
O         0.0003036597        0.0000078564       -0.0004064853
O         0.0000118620       -0.0001018268       -0.0005831724
O         0.0003049133       -0.0002275765       -0.0002903100
O        -0.0001003119        0.0002971251       -0.0002539149
O        -0.0002541076        0.0000185821       -0.0006293114
O         0.0002984710       -0.0000996149        0.0002537306
O         0.0000197565       -0.0002435278        0.0006282778
O        -0.0002214028        0.0003065914        0.0002903134
O        -0.0001068587        0.0000122763        0.0005823596
O         0.0005366748       -0.0000268620        0.0001305552
O        -0.0000124458        0.0000140240        0.0000408494
O        -0.0000272744       -0.0005571874        0.0002684760
O         0.0000029932       -0.0002813016        0.0003711829
O        -0.0000101092        0.0000318990        0.0002856765
O         0.0005184225       -0.0000296817       -0.0004079341
O         0.0000138005       -0.0005407058       -0.0005541107
O         0.0000121070       -0.0002747472       -0.0000668518
O        -0.0002806943       -0.0000017300       -0.0003707535
O        -0.0005573725       -0.0000232404       -0.0002668185
O        -0.0005400824        0.0000203941        0.0005537112
O        -0.0002735473        0.0000087389        0.0000626295
O        -0.0000249010        0.0005188208        0.0004088081
O         0.0000300626       -0.0000099379       -0.0002839019
O        -0.0000248621        0.0005395903       -0.0001309322
O         0.0000142250       -0.0000155196       -0.0000397402
O         0.0004879608        0.0001852173       -0.0003215213
O        -0.0000126708       -0.0000081019       -0.0002710567
O        -0.0000063467       -0.0005398202        0.0005821951
O         0.0000900851       -0.0002774888       -0.0002574312
O        -0.0000020269        0.0002291953        0.0006439527
O         0.0005349446        0.0000521171       -0.0001415725
O         0.0001091697       -0.0005198958        0.0001038877
O         0.0000021121       -0.0002806032       -0.0003985723
O        -0.0002723174        0.0000210886       -0.0000753543
O        -0.0005327723        0.0002308826        0.0001468103
O         0.0002089377       -0.0002866363        0.0003109987
O         0.0000513422       -0.0005571852       -0.0002777892
O        -0.0005563114        0.0000433796        0.0002768819
O        -0.0002848330        0.0002122568       -0.0003122861
O         0.0000144366       -0.0002724090        0.0000775225
O         0.0002390214       -0.0005328331       -0.0001484371
O        -0.0005198867        0.0001039287       -0.0001036297
O        -0.0002788613        0.0000058484        0.0003978378
O         0.0000490451        0.0005302554        0.0001414507
O         0.0002350457       -0.0000001660       -0.0006445215
O        -0.0002787376        0.0000918848        0.0002563465
O        -0.0005405985       -0.0000105287       -0.0005828053
O         0.0001779240        0.0004909243        0.0003206764
O        -0.0000067324       -0.0000131737        0.0002706577
O        -0.0000089584        0.0000006381       -0.0000645273
O         0.0004672077        0.0000920098        0.0002981203
O         0.0000929937       -0.0000000412        0.0005784833
O         0.0000287562        0.0005251857       -0.0004363828
O         0.0005246185        0.0000274365        0.0004356923
O         0.0000023154        0.0000919419       -0.0005786134
O        -0.0000022382       -0.0000082625        0.0000658939
O         0.0000858204        0.0004668598       -0.0002968730
O         0.0004724916       -0.0000963885       -0.0003003552
O        -0.0000062284       -0.0002501394       -0.0006284627
O        -0.0001254938       -0.0005207574       -0.0001093886
O        -0.0002249451       -0.0002858006       -0.0002961892
O         0.0000045913       -0.0001036963        0.0005831036
O         0.0004894516       -0.0001992669        0.0003048192
O        -0.0002527518       -0.0005330938        0.0001316379
O        -0.0000974757       -0.0002788762        0.0002622993
O        -0.0002883327       -0.0002298945        0.0002958820
O        -0.0005201860       -0.0001154934        0.0001082452
O        -0.0005325580       -0.0002486331       -0.0001321686
O        -0.0002774257       -0.0001011739       -0.0002625021
O        -0.0001950637        0.0004872347       -0.0003041117
O        -0.0001053716        0.0000068157       -0.0005847568
O        -0.0000937464        0.0004736343        0.0003028248
O        -0.0002492012       -0.0000084638        0.0006274718
O         0.0005495756       -0.0000224906        0.0002718483
O        -0.0005423716       -0.0000303485        0.0003973125
O        -0.0000261350       -0.0005562168        0.0001207361
O         0.0000098595        0.0005323767        0.0005559322
O        -0.0005555021       -0.0000244743       -0.0001203957
O         0.0005316237        0.0000160322       -0.0005552902
O        -0.0000292151       -0.0005443465       -0.0003984266
O        -0.0000264454        0.0005507164       -0.0002688757
O         0.0005244380        0.0002290414       -0.0001501730
O        -0.0005586287        0.0000502421        0.0001323050
O         0.0000333561       -0.0005394306        0.0004277694
O         0.0001087690        0.0005090149       -0.0001107453
O        -0.0005064201        0.0001848346        0.0003280470
O         0.0005510998        0.0000494984       -0.0002779026
O         0.0000929739       -0.0004866760        0.0003039104
O        -0.0000025185        0.0005322935       -0.0005812912
O         0.0002336893        0.0005235785        0.0001503523
O         0.0000464562       -0.0005608276       -0.0001326135
O         0.0000551123        0.0005505805        0.0002814948
O         0.0001813541       -0.0005044519       -0.0003294667
O        -0.0004865503        0.0000924263       -0.0003049722
O         0.0005322014       -0.0000054321        0.0005815940
O         0.0005097274        0.0001044128        0.0001092966
O        -0.0005380211        0.0000410929       -0.0004269984
O         0.0005098872       -0.0001183868       -0.0001162184
O        -0.0005102204       -0.0002025686       -0.0003127504
O        -0.0000933681       -0.0004828927       -0.0003074215
O        -0.0002487825        0.0005241917       -0.0001349397
O        -0.0004810956       -0.0001030590        0.0003073032
O         0.0005240095       -0.0002435914        0.0001331926
O        -0.0001995241       -0.0005090326        0.0003126280
O        -0.0001224714        0.0005107332        0.0001166320
     192
 i =        3, E =     -5782.6579526261
Ti         0.0000354956        0.0000377272       -0.0000009407
Ti        -0.0000782111       -0.0000793761        0.0000004151
Ti         0.0000284437       -0.0000683996        0.0005503574
Ti        -0.0000723789        0.0000290135       -0.0005518745
Ti         0.0000277802       -0.0001089261        0.0002418310
Ti        -0.0000717955       -0.0000189034        0.0005420685
Ti         0.0000747057       -0.0000792629       -0.0000282472
Ti        -0.0003859373        0.0000158320        0.0003440143
Ti        -0.0000836524       -0.0001198859       -0.0007826883
Ti         0.0000360785       -0.0000274121        0.0000076683
Ti        -0.0003870767       -0.0001019469       -0.0008982909
Ti         0.0000682985        0.0000296743        0.0005814397
Ti        -0.0001114597        0.0000276527       -0.0002395269
Ti        -0.0000204981       -0.0000707112       -0.0005395487
Ti        -0.0000283760        0.0000370809       -0.0000087948
Ti        -0.0001197843       -0.0000851742        0.0007837805
Ti        -0.0001035894       -0.0003891562        0.0009008108
Ti         0.0000291788        0.0000659308       -0.0005778890
Ti         0.0000161966       -0.0003877808       -0.0003424308
Ti        -0.0000799126        0.0000742973        0.0000294012
Ti         0.0000153324        0.0004013440        0.0003386315
Ti        -0.0000832750        0.0000962014        0.0007596351
Ti         0.0003990265       -0.0001014539        0.0008940406
Ti         0.0000887098        0.0000269729        0.0002179162
Ti        -0.0001020440        0.0003990224       -0.0008960381
Ti         0.0000279860        0.0000877727       -0.0002193938
Ti         0.0000974888       -0.0000847286       -0.0007588489
Ti         0.0004044355        0.0000161437       -0.0003420268
Ti        -0.0001201766       -0.0001213039       -0.0000006711
Ti        -0.0000285482       -0.0000307234       -0.0000012904
Ti         0.0000964439       -0.0003869516       -0.0009250570
Ti        -0.0003877949        0.0000971781        0.0009249749
Ti        -0.0000187407       -0.0001131546       -0.0002528324
Ti        -0.0001127946       -0.0000170702        0.0002514748
Ti        -0.0004029856       -0.0004040922       -0.0000016241
Ti         0.0000746937        0.0000733818       -0.0000004944
Ti         0.0000671233       -0.0000201102       -0.0005699367
Ti        -0.0003880902       -0.0001394470        0.0001476017
Ti        -0.0001188871        0.0000787298       -0.0008110188
Ti        -0.0000086544       -0.0003869002        0.0003509487
Ti        -0.0003896129       -0.0000088705       -0.0003519411
Ti         0.0000784552       -0.0001187726        0.0008102631
Ti        -0.0000197744        0.0000679151        0.0005685650
Ti        -0.0001388470       -0.0003897966       -0.0001490161
Ti        -0.0001367132        0.0004014643        0.0001434028
Ti        -0.0000213665        0.0000874819        0.0002274542
Ti         0.0004139057       -0.0004003239       -0.0000060287
Ti         0.0000981392        0.0000801769        0.0007888629
Ti        -0.0000101289        0.0004017191       -0.0003487173
Ti        -0.0001207831        0.0001016620        0.0000238929
Ti         0.0001203468       -0.0003891372        0.0001752240
Ti         0.0003997165        0.0000943983       -0.0009194102
Ti         0.0000794028        0.0000987824       -0.0007879134
Ti        -0.0004009320        0.0004151939        0.0000093781
Ti        -0.0003902557        0.0001182392       -0.0001719391
Ti         0.0000955070        0.0004012510        0.0009211539
Ti         0.0001006154       -0.0001197393       -0.0000221502
Ti         0.0004013863       -0.0000106401        0.0003478807
Ti         0.0004021022       -0.0001368884       -0.0001432748
Ti         0.0000892925       -0.0000231709       -0.0002258575
Ti         0.0004145194        0.0004148248       -0.0000013634
Ti         0.0000979129        0.0000995855       -0.0000007698
Ti         0.0003983862        0.0001192100        0.0001667981
Ti         0.0001195070        0.0004000254       -0.0001668712
O        -0.0000926956       -0.0001978958       -0.0000918659
O         0.0000193662        0.0000323469        0.0003692234
O        -0.0002063668        0.0000193970       -0.0001790022
O         0.0000586317       -0.0000940779        0.0004395437
O         0.0000194929       -0.0002073265        0.0001776632
O        -0.0000939469        0.0000574218       -0.0004401388
O         0.0000337256        0.0000184584       -0.0003693194
O        -0.0001954520       -0.0000929634        0.0000927774
O        -0.0000861115        0.0003140494       -0.0004248827
O         0.0000201392        0.0002328539       -0.0001789213
O        -0.0000219740        0.0000168960        0.0003850999
O         0.0002631168       -0.0000829897       -0.0003779024
O         0.0000364263        0.0002964568        0.0005291152
O        -0.0000920709        0.0002217940        0.0000943762
O         0.0002504971        0.0000443412        0.0004959842
O        -0.0000462210       -0.0000949237       -0.0004558063
O         0.0003156995       -0.0000866948        0.0004256753
O         0.0002326395        0.0000199236        0.0001784693
O         0.0002251774       -0.0000916630       -0.0000939290
O         0.0002940294        0.0000354394       -0.0005283453
O         0.0000456346        0.0002556050       -0.0004978272
O        -0.0000951081       -0.0000476929        0.0004565389