     192
 i =        1, E =     -5783.5251235729
Ti        -0.0630456628        0.0919080620        0.0663466593
Ti         1.8670610110        1.9240340231        4.8996276877
Ti         0.0471538613        2.0304096775        2.5311781156
Ti         1.8645523380       -0.0470774121        7.1721650658
Ti        -0.0342717220        3.8299589150       -0.0533425544
Ti         1.9500789169       13.1924685209        4.8339971915
Ti        11.2879758324        1.9809825044        2.4511392986
Ti         5.6076483871       -0.0903077890        7.2231889746
Ti         1.9057470687        3.8179336551        7.2358482736
Ti         0.0244141757       13.3482188325        2.4741003993
Ti         5.6781943933        1.8368828024        4.8276356813
Ti        11.3032781712        0.1157355328       -0.0453864708
Ti         3.6765256413        0.0974458516        0.0483337114
Ti        13.1229920116        1.7696869129        4.7041363992
Ti        13.2673758566       -0.0449954753        7.1548395526
Ti         3.7504422776        1.8024016483        2.5227151743
Ti         1.9719338805        5.6388640275        4.8507945677
Ti        -0.0002214349       11.5647202387        0.0056431558
Ti        -0.0228342436        5.7222857129        2.4870133199
Ti         1.8974009657       11.3171454212        7.3612846191
Ti         0.0718188279        7.5060623197        0.0537477284
Ti         2.0391052572        9.5182259285        4.9044657969
Ti         7.4985983460        1.9575385598        2.3504724689
Ti         9.4698615844       -0.1316387887        7.2260021061
Ti         1.9464657394        7.5794557895        7.1610234706
Ti         0.1327175648        9.5809917373        2.4736475293
Ti         9.3282872260        1.8086463914        4.7683033568
Ti         7.4641173881       -0.0614837302       -0.0798412013
Ti         3.7290544080        3.7834491060       -0.0067744841
Ti        13.2380282231       13.1243615889        4.7424806496
Ti        11.3743170608        5.7263470299        2.3768538340
Ti         5.6800089901       11.3252703476        7.1522113983
Ti        13.1725361617        3.6801051979        7.2402537856
Ti         3.7722962084       13.1620537034        2.4440072115
Ti         5.6804758253        5.7197398627        4.8434196552
Ti        11.2218349705       11.3903692793        0.1087282646
Ti        11.2848825898       13.3333125204        2.3541882672
Ti         5.6599613127        3.7269627503        7.1286578679
Ti         3.8840385749       11.4218815609        0.0420331758
Ti        13.2883928861        5.5835915576        4.9040182241
Ti         5.7981444411       13.2090697425        4.8103813426
Ti        11.2673514264        3.7897794907       -0.0769529527
Ti        13.0951017013       11.3814110369        7.2646606887
Ti         3.7910575909        5.6079515443        2.3940540115
Ti         3.7991115921        7.5572059842        0.0452040623
Ti        13.3044865711        9.4213750940        4.8373375316
Ti         7.5187947693        5.6776502441        2.3892371487
Ti         9.4268175728       11.1413462180        7.1724273086
Ti        13.3050200473        7.5417970908        7.2313830497
Ti         3.8822008744        9.4419082929        2.3389336851
Ti         9.5215909567        5.5613481244        4.7064911944
Ti         7.5325540904       11.3429112360        0.0712664889
Ti        11.4053274549        9.4478835895        2.4127728738
Ti         5.6605083841        7.6069273030        7.2014834381
Ti         5.7796868491        9.4227358695        4.7418407083
Ti        11.3207445765        7.5750332293        0.0057771841
Ti         9.4279498159        3.6451094631        7.1661331034
Ti         7.5401126345       13.3086784500        2.4057890458
Ti         7.4631154909        3.7977980688       -0.0637851142
Ti         9.5129348122       13.2420844080        4.7817050252
Ti         7.5982187420        7.5329659248       -0.0561434691
Ti         9.5316813956        9.3933151603        4.7597213735
Ti         7.6378924646        9.4163849932        2.3229169938
Ti         9.5159999209        7.3577752194        7.1444105655
O         0.0557806962        0.0834482201        2.0925708698
O         1.6647748834        1.9356786733        6.7387841346
O        -0.0702286366        2.0006547774        4.4155845509
O         1.7982797652        0.1492545615        9.2365540380
O         1.8071778500       -0.0170188400        5.2596042565
O        -0.1521628650        2.0049916174        0.4919298452
O         1.8670992393        2.1785261660        2.8320965149
O        -0.0698013395       -0.0503670278        7.6226640117
O        -0.0292618021        3.9089629919        2.0822661400
O         1.9954695486       13.2693199432        6.8249963278
O        11.2869879375        1.8270999128        4.3157284869
O         5.6314096432       -0.0214488069        9.2678849058
O         2.1135532631        3.7579370552        5.1784881151
O         0.0542665309       13.3671265537        0.4356900420
O         5.6316466006        1.8504799035        2.8361268703
O        11.2859070886        0.0681868822        7.5618411076
O         3.7119905365        0.1196805468        7.6897231818
O        13.1896884237        1.8717431644        2.8299627175
O        13.1744356879       -0.1079953241        9.2179142122
O         3.7111529652        1.6467907714        4.3788566344
O         1.9082897945        5.6233279889        6.7423563487
O         0.0603885553       11.4564829148        1.9216218926
O         0.0843707420        5.7238981379        0.4643942901
O         1.9157516876       11.3171669871        5.2343834515
O         0.1222887992        7.7208375989        1.9548323370
O         2.1625304519        9.4637743609        6.7785716757
O         7.4571064947        1.8621339456        4.3603285506
O         9.4159019577        0.0373879478        9.2011461487
O         1.8215138412        7.5679030205        5.2740643026
O         0.1127423474        9.5671144431        0.2736269364
O         9.3698230558        2.0421189798        2.8402880623
O         7.4840598006       -0.1608609051        7.6989575819
O         3.7498216013        0.0570424868        2.0375043259
O        13.2179860118        1.8492380716        6.7830551300
O         0.0053848300        5.6055634032        4.4891888216
O         1.9284433123       11.3546701056        9.2672710557
O        13.1713652504       -0.0306038908        5.1313690177
O         3.7069929626        1.9545726364        0.4336657138
O         1.9457093349        5.8049589968        2.9109623170
O         0.0960133164       11.4260720149        7.5667500723
O        11.3477999512        2.0059538372        0.2861001183
O         5.8161216573       -0.0853519184        5.2753148427
O         5.5639118104        1.8280753410        6.7854530171
O        11.2693885183        0.1387373665        1.8952222593
O         1.9061621560        3.8354653691        9.2055444868
O        -0.0185991788       13.1535139644        4.4558343549
O         0.0224810812        3.8022625080        7.6767814343
O         1.8855589250       13.2360704196        2.8665234606
O         3.9684709308        3.8367620947        2.0691774657
O        13.1048785551       13.2706248285        6.7321422031
O        11.3727205461        5.6626375650        4.3867141394
O         5.6908443991       11.4722367107        9.2264223186
O        13.1777526741        3.8027592176        5.2186036130
O         3.6379768439       13.3095663397        0.5070122351
O         5.7381070297        5.9144510993        2.7380222924
O        11.3038791410       11.3383233858        7.6542770048
O        11.2507719751       13.2709391703        0.4091972547
O         5.4918286649        3.7203837516        5.1847272767
O         3.7882361434       11.3693656854        7.6791605245
O        13.2775726315        5.9257837457        2.8739490546
O         5.5154664767       13.1994202208        6.7824712378
O        11.5448347173        3.8319947005        1.9194354036
O        13.2329499660       11.4078738303        9.2098024695
O         3.8644108576        5.7141917597        4.4076217570
O         5.7625239735        5.6340956642        6.7347353803
O        11.1213032377       11.4584457945        2.0023648880
O        13.2080619687        3.9112975836        9.1362498363
O         3.7983636008       13.2149329394        4.3904931785
O        11.3589784270        5.7372688764        0.4101782124
O         5.7865464988       11.3033083738        5.2356849103
O         3.7459820228        3.7227057191        7.6477068414
O        13.2122198460       13.2141103875        2.7145526264
O        13.0511897119       11.4086439655        5.1524777644
O         3.7136636645        5.6751165278        0.4287503009
O         5.6956016059       13.1668667835        2.8678444751
O        11.2946884760        3.5628808733        7.5566960071
O         3.9641467086       11.4056630119        1.9664948410
O        13.2134650424        5.6416204628        6.9015839010
O        11.2887108145       13.3511799255        4.3230069870
O         5.6636799159        3.8119229298        9.1419948117
O         3.7868328943        7.6340653139        1.9265800665
O        13.3108891315        9.5851254044        6.7531134912
O         7.5735526521        5.5274510766        4.3209848356
O         9.4243788512       11.3241725231        9.2235491889
O        13.2630137300        7.5872896317        5.4194625710
O         3.8113628744        9.5219905299        0.3596438661
O         9.5537723293        5.5799675471        2.7886872246
O         7.5234213003       11.3487155351        7.5744993806
O        11.3460762284        9.4925545762        0.4075741648
O         5.7306522927        7.5681235703        5.1627540834
O         5.5457145528        9.4184658915        6.7580420157
O        11.2238671526        7.6053379346        2.0190159067
O         9.4343880206        3.9497053673        9.1482890316
O         7.5919450573       13.0434110966        4.4525101599
O         7.5047861772        3.6449704794        7.5499658112
O         9.4298599103       13.4701133308        2.8562823223
O         7.4427339617       -0.0372188186        2.0379106038
O         9.2128641760        1.8076182712        6.7286035071
O         0.0797902049        9.3690625639        4.4335999050
O         1.9277192694        7.5756210343        9.2018774704
O         9.3110718491       -0.0327287927        5.1935303935
O         7.6361054306        1.9044069861        0.4384662373
O         1.9640101062        9.7002190840        2.7723091861
O         0.0421277759        7.5680545100        7.6168738703
O         7.5249440839        3.7978638528        1.9496110935
O         9.5032483305       13.2076123450        6.7441679718
O        11.4427597730        9.2289346718        4.3783363581
O         5.6688002861        7.6989282855        9.1266247585
O         9.4815956827        3.6887543393        5.1821680163
O         7.5680665257       13.2195956849        0.4175151225
O         5.7397427638        9.4008884600        2.7110133644
O        11.3037936690        7.6448141850        7.5948679604
O         3.7907310076        7.3637620665        7.5994282836
O        13.3244704641        9.6167133121        2.8076727643
O        13.2644925856        7.6755300838        9.3280631777
O         3.8517241893        9.4264689556        4.2983593335
O         9.6105022642        5.5294818169        6.7553336212
O         7.6432576229       11.3272721596        1.9621012502
O         7.3423239086        5.6951159858        0.3696425372
O         9.5555055267       11.2284912450        5.1961751220
O         7.8624362494        7.5895300353        1.9248024068
O         9.4483799035        9.4154517384        6.8108359578
O         7.5606437208        9.3777914884        4.3263682386
O         9.4708266159        7.4382002581        9.2199852873
O         9.3534925058        7.4829078031        5.2460530919
O         7.5172576036        9.4666749125        0.3620464793
O         9.5712200027        9.5104825847        2.8704444894
O         7.5970381080        7.5408149629        7.5876756941
     192
 i =        2, E =     -5783.6170072316
Ti        -0.0592654016        0.1150713900        0.0330414908
Ti         1.8563819248        1.9285078858        4.8830390362
Ti         0.0411080057        2.0111931587        2.4892678960
Ti         1.8458728905       -0.0663048534        7.1909871566
Ti        -0.0576517687        3.8304624060       -0.0343842752
Ti         1.9532803265       13.2065797166        4.8394975825
Ti        11.3006928662        1.9582983468        2.4344269543
Ti         5.6004269448       -0.0750413411        7.2138638503
Ti         1.9052626454        3.8053559507        7.2469989436
Ti         0.0084023513       13.3340477123        2.4600854312
Ti         5.6806152340        1.8518245044        4.8128919000
Ti        11.2927122496        0.0934820388       -0.0333011328
Ti         3.6598903175        0.0818657589        0.0341930753
Ti        13.1640608745        1.7914373085        4.7344308147
Ti        13.2657430093       -0.0404620694        7.1774920885
Ti         3.7636382226        1.8312673402        2.5090167806
Ti         1.9637292425        5.6578558855        4.8325726356
Ti        -0.0011974320       11.5526192976       -0.0009533731
Ti        -0.0160852781        5.7108741403        2.4787817846
Ti         1.8777946264       11.3441782068        7.3315663175
Ti         0.0367981976        7.4995852151        0.0344249657
Ti         2.0228447994        9.5198772096        4.8640712975
Ti         7.5007915063        1.9552730633        2.3321333877
Ti         9.4834119799       -0.1127846663        7.2270781927
Ti         1.9386076940        7.5718054802        7.1746414030
Ti         0.1052025020        9.5527231586        2.4829972629
Ti         9.3503762059        1.8211081552        4.7909936049
Ti         7.4668574641       -0.0335874557       -0.0657269376
Ti         3.7394222368        3.7709339770        0.0026043646
Ti        13.2326967448       13.1159534535        4.7775538357
Ti        11.3605767712        5.7140812578        2.3859467889
Ti         5.6737234937       11.3187954345        7.1732801391
Ti        13.1643204325        3.7049001739        7.2316757845
Ti         3.7818845134       13.1928554257        2.4439615345
Ti         5.6983350220        5.6986555798        4.8359396234
Ti        11.2237501526       11.3871190166        0.0822206872
Ti        11.3050393290       13.3129352029        2.3471023587
Ti         5.6663947030        3.7262216489        7.1408576168
Ti         3.8683780642       11.3955580039        0.0222259733
Ti        13.2766320239        5.5919831070        4.8728632428
Ti         5.7721049084       13.2044399913        4.8058613704
Ti        11.2612764820        3.7976451243       -0.0444776783
Ti        13.1238291363       11.3529912667        7.2625976343
Ti         3.8022595164        5.6307291163        2.3928823722
Ti         3.7918600598        7.5813950519        0.0325320193
Ti        13.2872692265        9.4305322416        4.8395736344
Ti         7.4928056076        5.6847274544        2.4120179957
Ti         9.4100481084       11.1769244135        7.1695434287
Ti        13.2980714108        7.5276724876        7.1958995753
Ti         3.8573767313        9.4336329134        2.3519108041
Ti         9.5192723594        5.5732906346        4.7250301867
Ti         7.5658030302       11.3536016577        0.0442631600
Ti        11.3964631234        9.4534973669        2.4350630804
Ti         5.6639743428        7.5823666262        7.2242898396
Ti         5.7699776202        9.4207601223        4.7573621582
Ti        11.3288114359        7.5862006607       -0.0002407358
Ti         9.4365177374        3.6634794637        7.1746143971
Ti         7.5408121604       13.3258063538        2.3894764400
Ti         7.4745675287        3.7975194836       -0.0585573585
Ti         9.4977029599       13.2362609286        4.7874210626
Ti         7.6104889363        7.5323125383       -0.0632428004
Ti         9.5286176653        9.4210510449        4.7773237059
Ti         7.6131458142        9.4153918467        2.3301391020
Ti         9.5181371496        7.3887490207        7.1521974429
O         0.0566733805        0.0645693789        2.0295368420
O         1.7560808173        1.9169185544        6.7677535525
O        -0.0220177758        1.9789726311        4.3937595548
O         1.7970893318        0.1257246272        9.2116626314
O         1.8142151961       -0.0110359805        5.2650010805
O        -0.1190122155        2.0078885648        0.4504967146
O         1.8689512155        2.0952074743        2.8090142825
O        -0.0518667959       -0.0550446800        7.6392930377
O        -0.0613720275        3.8916979060        2.0708465908
O         1.9878378294       13.2435861865        6.8358628817
O        11.2938595566        1.8437059949        4.3440803975
O         5.6036549352        0.0174076114        9.2510372811
O         2.0683070659        3.7793223558        5.1915887084
O         0.0478669495       13.3699167635        0.4299661276
O         5.6342496213        1.9181540505        2.8194041530
O        11.3101064461        0.0771289304        7.5695701137
O         3.7018908425        0.0864707351        7.6668119126
O        13.1906545522        1.8963207377        2.8356039578
O        13.1860775811       -0.0322285590        9.1890281068
O         3.7212064132        1.6740572649        4.3997426044
O         1.8711910309        5.6374219273        6.7711892754
O         0.0228362766       11.4296405215        1.9196647295
O         0.0378296747        5.7119249601        0.4580027353
O         1.8941102270       11.3354915862        5.2396038439
O         0.1264076962        7.6956724985        1.9449658120
O         2.0551610978        9.4675030652        6.7947302371
O         7.4969240196        1.9139123479        4.3814793177
O         9.4184791364        0.0164769408        9.1745468420
O         1.8931566093        7.5667456333        5.2668907175
O         0.0851224445        9.5412944928        0.2733588401
O         9.3823253807        1.9845633878        2.8185726476
O         7.4780993288       -0.1328980251        7.6695482453
O         3.7347654063        0.0620866890        2.0336084221
O        13.2722098483        1.8663530789        6.7907004639
O         0.0128828798        5.5947458860        4.4653222229
O         1.8923892507       11.3507886938        9.2498361928
O        13.2303137603       -0.0055136160        5.1694745506
O         3.7141745354        1.9343245733        0.4417520936
O         1.9421392014        5.7531794501        2.8669071854
O         0.0451638330       11.4316147518        7.5944258956
O        11.3233850684        1.9828701933        0.3113556972
O         5.7893675923       -0.0565917149        5.2541880374
O         5.6313790441        1.8256368806        6.7824534710
O        11.2981226684        0.1288283868        1.9199071842
O         1.8850787269        3.8177802205        9.2370799545
O        -0.0101098786       13.2061134629        4.4152945292
O         0.0011805272        3.7842936496        7.6749531681
O         1.8821122491       13.2388568309        2.8621859069
O         3.9014248201        3.8470850899        2.0594052773
O        13.1561341376       13.2348132025        6.7832015645
O        11.3677374950        5.6671509193        4.4059305717
O         5.6982446372       11.4580590716        9.2272296475
O        13.1569909058        3.8035475085        5.2203784736
O         3.6478046134       13.2939947252        0.4734805200
O         5.7096837020        5.8748249632        2.7640518352
O        11.3189776319       11.3347517751        7.6133156895
O        11.2733137246       13.2736344716        0.3866618316
O         5.5834808902        3.7222341311        5.1849995103
O         3.7904785061       11.3760607677        7.6648469529
O        13.2868823301        5.9047135860        2.8666040116
O         5.5201856979       13.2043316709        6.8104119572
O        11.4800502862        3.8067167506        1.9621802186
O        13.2532660317       11.4315520309        9.2010253712
O         3.8550534062        5.7222572281        4.4000198667
O         5.7537593430        5.6325843877        6.7374672174
O        11.2119268808       11.4098620284        2.0082631224
O        13.2058318668        3.8923842193        9.1495822290
O         3.7842969783       13.2328091781        4.4170964431
O        11.4038560012        5.7426646755        0.4059911127
O         5.7413999582       11.2897707040        5.2459157521
O         3.7569549240        3.7229975220        7.6553088227
O        13.2312436668       13.2663121876        2.7730237137
O        13.0846084937       11.3461827798        5.1579665494
O         3.7412604212        5.6803946087        0.4216917788
O         5.6936009982       13.2321872442        2.8527955310
O        11.3023790765        3.5798176675        7.5772617665
O         3.9234209468       11.3989416588        1.9879297991
O        13.2204611629        5.6546932424        6.8397453421
O        11.3062280852       13.3121870904        4.3427098554
O         5.6582938178        3.7840410656        9.1606463517
O         3.7557370183        7.6095750386        1.9436827985
O        13.3119161627        9.5424425835        6.7828928135
O         7.5837881269        5.5181552274        4.3339370517
O         9.4331704460       11.3109410321        9.1753314643
O        13.2962296438        7.5750274066        5.3406172200
O         3.7967902131        9.5082947073        0.3769046657
O         9.5058751774        5.5778485787        2.7940228581
O         7.5185899401       11.3227659904        7.5634276314
O        11.3618312557        9.4838667665        0.4667930306
O         5.7459765224        7.5510103891        5.1773133020
O         5.5949998085        9.4041826003        6.7719025110
O        11.2981486997        7.6166748091        2.0028751139
O         9.4154679973        3.9320590295        9.1514239661
O         7.5735849718       13.0854178766        4.4096761341
O         7.5210956758        3.6927249599        7.5720566615
O         9.4261622860       13.3804089128        2.8213495065
O         7.4800282846        0.0041352872        2.0363814396
O         9.2802324319        1.8226418211        6.7617723174
O         0.0533838114        9.4336938479        4.4179392466
O         1.9089901979        7.6609053342        9.2138853433
O         9.3526220664       -0.0236512537        5.2031282874
O         7.5658429918        1.9136061305        0.4076908513
O         1.9366033904        9.6374283465        2.7653240432
O         0.0327451366        7.5860070002        7.6153564599
O         7.4787840380        3.8188072807        1.9482534735
O         9.4851261676       13.2148259813        6.7621574324
O        11.4129312783        9.2460666209        4.4048340940
O         5.6727699074        7.6539882455        9.1568550624
O         9.4565079326        3.7122621075        5.1932047636
O         7.5875601217       13.2535015309        0.4279412046
O         5.7303677944        9.4101629657        2.7485129162
O        11.3385120562        7.6279636555        7.6349330111
O         3.7833109738        7.3912133531        7.5967544589
O        13.2911499768        9.6030267837        2.8086082690
O        13.2653443448        7.6624800575        9.2348546710
O         3.8429500462        9.3933062609        4.3214998174
O         9.5417954954        5.5643513567        6.7656616384
O         7.6660552252       11.3304880926        1.9584380917
O         7.4113374968        5.6903405366        0.4004793467
O         9.5576790396       11.2543748412        5.2064765404
O         7.7928020682        7.5594312259        1.9447522514
O         9.4636505652        9.4090849230        6.8373956135
O         7.5817814982        9.3886740351        4.3450490420
O         9.4703610261        7.4955513333        9.1828720815
O         9.4004034685        7.4928398391        5.2299496570
O         7.5314699830        9.4537922922        0.3641973581
O         9.5277793413        9.5103869728        2.8636985787
O         7.5887855420        7.5163540388        7.5922519529
     192
 i =        3, E =     -5783.6537785290
Ti        -0.0489514838        0.1155542881        0.0178414214
Ti         1.8636939733        1.9212522114        4.8720488103
Ti         0.0367386445        2.0069769028        2.4705870034
Ti         1.8509366462       -0.0543827262        7.2005641358
Ti        -0.0672570468        3.8198805511       -0.0302735366
Ti         1.9503759720       13.2226943461        4.8285769213
Ti        11.3232029256        1.9450035517        2.4326092091
Ti         5.6057402204       -0.0526996384        7.2112909290
Ti         1.9009819299        3.7950809710        7.2475532549
Ti         0.0049876739       13.3339219830        2.4450446415
Ti         5.6860978814        1.8596353231        4.8140841259
Ti        11.2857359016        0.0823137442       -0.0279315602
Ti         3.6692177415        0.0798458814        0.0271674205
Ti        13.1819725405        1.8128296893        4.7649220864
Ti        13.2503726817       -0.0295647144        7.1962972630
Ti         3.7719719865        1.8400505978        2.4846554664
Ti         1.9586404157        5.6670847963        4.8265675560
Ti        -0.0150875281       11.5402829540       -0.0091939817
Ti        -0.0099526723        5.7013989399        2.4709150729
Ti         1.8639929721       11.3522280182        7.2994885141
Ti         0.0164912835        7.5078933608        0.0104136835
Ti         2.0029171851        9.5192917014        4.8466767933
Ti         7.5159627015        1.9468694789        2.3336705631
Ti         9.4714536608       -0.0940643812        7.2185916926
Ti         1.9262215814        7.5671295498        7.1764303158
Ti         0.0854782211        9.5296137871        2.4838302716
Ti         9.3655662568        1.8367375894        4.7876632714
Ti         7.4666014381       -0.0094508069       -0.0566707812
Ti         3.7448278925        3.7751922866        0.0114986465
Ti        13.2351100115       13.1399304608        4.7817854879
Ti        11.3630746757        5.7079331771        2.3922972437
Ti         5.6687619274       11.3189901696        7.1892941506
Ti        13.1765752600        3.7203306584        7.2193668593
Ti         3.7793762473       13.2168487235        2.4230506319
Ti         5.7000359225        5.6815724632        4.8398988180
Ti        11.2392800678       11.3878390829        0.0564502150
Ti        11.3232289416       13.2982065166        2.3661567005
Ti         5.6653914993        3.7325421738        7.1572025707
Ti         3.8466693566       11.3893874871        0.0195872248
Ti        13.2713993873        5.5958724398        4.8512309277
Ti         5.7490130796       13.2039046461        4.7965651290
Ti        11.2674696882        3.7964881006       -0.0211979752
Ti        13.1618870633       11.3302175572        7.2721692670
Ti         3.7936722475        5.6305315161        2.3910354228
Ti         3.7801865123        7.5931158330        0.0155767427
Ti        13.2835871344        9.4372044310        4.8386858425
Ti         7.4983242847        5.6905953040        2.4071135988
Ti         9.4169432926       11.2079925500        7.1638131820
Ti        13.2970789966        7.5237139966        7.1830558376
Ti         3.8382812129        9.4325392286        2.3763871782
Ti         9.5019420401        5.5849387726        4.7427956532
Ti         7.5713622169       11.3481101215        0.0275510796
Ti        11.4029465934        9.4548667847        2.4263229948
Ti         5.6717811838        7.5621301907        7.2345852095
Ti         5.7583253062        9.4153535951        4.7759892823
Ti        11.3504972441        7.5911501703       -0.0136566547
Ti         9.4332078332        3.6855237325        7.1830768127
Ti         7.5473526278       13.3312433605        2.3798082268
Ti         7.4823509441        3.8047771606       -0.0496772482
Ti         9.4899918728       13.2303500326        4.7897631387
Ti         7.6116773616        7.5347090408       -0.0623088184
Ti         9.5193464816        9.4296719586        4.7748502134
Ti         7.6084919672        9.4332509338        2.3490892579
Ti         9.5119311322        7.4292380858        7.1620335861
O         0.0465102285        0.0758384499        2.0024556951
O         1.8002286297        1.9143292190        6.7811785371
O         0.0056583366        1.9517934988        4.3967617199
O         1.8152515967        0.1245790534        9.2071408138
O         1.8071819714       -0.0138391076        5.2628265570
O        -0.1099267666        1.9926912945        0.4395676197
O         1.8713725837        2.0294255228        2.7979124084
O        -0.0384133387       -0.0618799539        7.6309833272
O        -0.0899267014        3.8771993480        2.0487601990
O         1.9652134331       13.2316928773        6.8367496361
O        11.2925139981        1.8517026507        4.3721462286
O         5.5906933968        0.0143827935        9.2388794718
O         2.0379366077        3.7845914005        5.2091815879
O         0.0395263366       13.3552870603        0.4191400971
O         5.6446922629        1.9503696067        2.8144524644
O        11.3070469616        0.0601450807        7.5748942876
O         3.7125878256        0.0427838619        7.6611464324
O        13.2041870090        1.8902670292        2.8448384794
O        13.1913794564        0.0267630118        9.1812008241
O         3.7480096802        1.7232221819        4.4053682977
O         1.8570480207        5.6503806711        6.7988418516
O        -0.0169904729       11.4087800135        1.9264917753