     192
 i =        1, E =     -5783.5251235729
Ti        -0.0038968350        0.0147857407       -0.0061649145
Ti        -0.0080850167       -0.0034697537       -0.0159661348
Ti        -0.0063072906        0.0015434650       -0.0152701464
Ti        -0.0066000694        0.0090024961        0.0134561468
Ti        -0.0053272743       -0.0060629347        0.0142839448
Ti         0.0036545685        0.0026060635        0.0025480369
Ti         0.0035798099        0.0029697653       -0.0260692286
Ti        -0.0000307625        0.0066446437        0.0043022532
Ti        -0.0002471026       -0.0125845806       -0.0056220267
Ti        -0.0114437574       -0.0037791184        0.0004637026
Ti        -0.0146582045        0.0020382289        0.0002742318
Ti        -0.0049080317       -0.0071901589       -0.0007399895
Ti        -0.0004662234       -0.0051298621       -0.0051764786
Ti         0.0143272028        0.0048546765        0.0229175715
Ti        -0.0140438735        0.0083430992        0.0085160490
Ti         0.0029712354        0.0205346515       -0.0138499087
Ti        -0.0016393870        0.0067107127       -0.0181295805
Ti        -0.0015288350       -0.0019533934       -0.0094396520
Ti         0.0064985399        0.0043478021        0.0041045867
Ti         0.0102917612        0.0073650970       -0.0170616962
Ti        -0.0094689022        0.0077402637       -0.0094290274
Ti        -0.0032316001       -0.0105652121       -0.0318339915
Ti        -0.0018074223       -0.0124644696       -0.0072699293
Ti        -0.0036393047        0.0079880338        0.0007676202
Ti        -0.0011729084       -0.0061335249        0.0093800868
Ti         0.0001328099       -0.0062522493        0.0115278579
Ti        -0.0000003232        0.0011883807        0.0087361573
Ti         0.0142880378        0.0074130495        0.0279390550
Ti         0.0151450775        0.0003412833        0.0057361631
Ti        -0.0104387592        0.0200664569       -0.0079235424
Ti         0.0065883542       -0.0074929566        0.0013520546
Ti        -0.0020529294       -0.0033794387        0.0116217632
Ti         0.0047143555        0.0023623861       -0.0113400049
Ti         0.0053161103        0.0171227262        0.0010901904
Ti         0.0150796397       -0.0086034394       -0.0082144809
Ti         0.0009027939        0.0028847271       -0.0118584167
Ti         0.0008685579        0.0024114960       -0.0017593305
Ti        -0.0035368238        0.0007499297        0.0009459392
Ti        -0.0051895823       -0.0023664080       -0.0160547999
Ti        -0.0107082034        0.0098958515        0.0004196676
Ti        -0.0092966607       -0.0069669262       -0.0062255596
Ti         0.0038892268        0.0136368786        0.0101251913
Ti         0.0078082763        0.0024583404        0.0001004913
Ti         0.0044204633        0.0078071173        0.0057552191
Ti         0.0021581319        0.0101051949       -0.0174636558
Ti         0.0011657714        0.0074987690       -0.0031858701
Ti         0.0028293695        0.0063769556       -0.0022512567
Ti        -0.0078416092        0.0283009614        0.0050036629
Ti        -0.0069449150        0.0000120923        0.0200017243
Ti        -0.0119977970        0.0058868119        0.0006472270
Ti        -0.0032194049        0.0018452446        0.0099539336
Ti         0.0092768982        0.0000032243       -0.0146792731
Ti         0.0107368434        0.0054167959       -0.0061761248
Ti         0.0057928599       -0.0084237457        0.0052469060
Ti        -0.0127085091        0.0055473180        0.0017934517
Ti         0.0026888808        0.0080055512       -0.0065449203
Ti        -0.0042326844       -0.0023300430       -0.0017824413
Ti         0.0095934167       -0.0071850666       -0.0027528655
Ti         0.0102810583       -0.0026685786        0.0033184749
Ti        -0.0075134757       -0.0083508696        0.0093829420
Ti         0.0015688595        0.0024817380       -0.0048167818
Ti         0.0002102466        0.0008125163        0.0058672815
Ti        -0.0012587223        0.0053455914        0.0044077876
Ti        -0.0112628996        0.0059033667        0.0061588944
O         0.0012571361        0.0014132357       -0.0077042588
O         0.0098877093       -0.0019233715        0.0158629503
O         0.0160558267       -0.0033167351        0.0039504488
O         0.0037631152       -0.0032009050       -0.0046205375
O         0.0008845852       -0.0000508343       -0.0064565169
O         0.0054354097       -0.0018027469       -0.0053204351
O         0.0042330616       -0.0109447757       -0.0010088013
O         0.0161443439       -0.0010493424        0.0045930376
O        -0.0031095986       -0.0036049131       -0.0054635207
O        -0.0005386708       -0.0173229015        0.0023289264
O        -0.0129187867       -0.0004040769        0.0174601138
O        -0.0185291581        0.0045549850       -0.0032047150
O        -0.0047263827        0.0103483639        0.0055628888
O         0.0012020168       -0.0022956199        0.0014538601
O         0.0016452051        0.0060067729       -0.0032765823
O         0.0073777844        0.0008343228        0.0021405020
O         0.0005932664       -0.0036071091       -0.0051161947
O        -0.0009508199        0.0030352759       -0.0080052994
O         0.0081595500        0.0083874820       -0.0078786712
O         0.0060644103        0.0005351174        0.0176491506
O        -0.0042687937        0.0095550395        0.0178499913
O        -0.0023258779       -0.0085588146        0.0031329696
O        -0.0061255646       -0.0116742246        0.0002871734
O        -0.0014868817        0.0148954266        0.0034999833
O        -0.0002821781       -0.0047257616        0.0011998646
O        -0.0096928171       -0.0019079695        0.0195270413
O         0.0174095472        0.0044931465        0.0055528064
O         0.0031809580       -0.0018344977       -0.0053514840
O         0.0085554701       -0.0002247194       -0.0061273055
O        -0.0031736932       -0.0038949548       -0.0012534303
O         0.0042099334       -0.0055581430       -0.0102428192
O        -0.0031180564        0.0025619210       -0.0229375329
O        -0.0007360194       -0.0122708080       -0.0005059422
O         0.0055283623        0.0033651808       -0.0036989118
O         0.0110428395       -0.0009586365       -0.0080242528
O        -0.0135650210        0.0001347175        0.0039884225
O         0.0061197076        0.0102353443        0.0054643986
O         0.0005430730       -0.0051371936        0.0058422863
O        -0.0071031290       -0.0058417331       -0.0086268409
O        -0.0252266884        0.0021593260        0.0098664083
O        -0.0029160295       -0.0151149533        0.0071218188
O        -0.0032071629        0.0143277690       -0.0042405629
O         0.0068634146       -0.0018276865        0.0012471543
O         0.0034398861       -0.0008220074        0.0057589406
O        -0.0134784562       -0.0012038719        0.0058689175
O         0.0067579030        0.0054752222       -0.0101098525
O        -0.0080661306       -0.0005586119       -0.0073364160
O         0.0044190071       -0.0006614123        0.0007894526
O        -0.0079819349       -0.0077689131       -0.0059205642
O         0.0053343526       -0.0184172285        0.0042713386
O         0.0038018730       -0.0003485859        0.0036981010
O         0.0014715629       -0.0006673079       -0.0038623310
O        -0.0032748584       -0.0135776834        0.0007434023
O         0.0009364691        0.0004248207       -0.0108223940
O        -0.0149499849       -0.0049824079        0.0042444031
O         0.0012149799       -0.0004100149       -0.0017420264
O         0.0027588845        0.0115675154       -0.0058241089
O         0.0095362585       -0.0032147657        0.0010598494
O         0.0116320332        0.0003300873        0.0007127415
O         0.0036104569       -0.0040442449        0.0009896264
O        -0.0014539065        0.0005791232        0.0072420931
O        -0.0083723097       -0.0064662898        0.0067277639
O         0.0083426846        0.0012029174        0.0000988935
O        -0.0100330525        0.0000956210       -0.0017742678
O        -0.0021208197        0.0052981623        0.0046112853
O         0.0108565955       -0.0193327816        0.0076056326
O         0.0010006155       -0.0009873100        0.0055958024
O        -0.0062485689        0.0017457794        0.0107119954
O         0.0047840284       -0.0042114171       -0.0016840449
O        -0.0071447592       -0.0050517646       -0.0035919062
O         0.0074170556       -0.0002959323       -0.0017787250
O         0.0054803360        0.0060219624        0.0122784655
O         0.0014218507       -0.0328844578        0.0035614768
O         0.0029335431       -0.0004922309        0.0007039310
O        -0.0024920369        0.0078071188       -0.0024179254
O         0.0054938987        0.0021624533        0.0021158843
O        -0.0029678493       -0.0129969112        0.0105666766
O         0.0004615414        0.0042878362       -0.0060290975
O         0.0208924745       -0.0036850364        0.0057706799
O        -0.0121102594       -0.0021803351        0.0031911963
O        -0.0026109434       -0.0106448187        0.0091694053
O        -0.0001694551       -0.0084857405        0.0100544499
O         0.0019725046       -0.0008909746        0.0040857505
O        -0.0063535356       -0.0015347369       -0.0086745155
O         0.0017718717       -0.0049407817       -0.0326370951
O        -0.0001510059       -0.0043509818        0.0024440201
O        -0.0181935815       -0.0008112837       -0.0013163684
O         0.0062313122       -0.0027635294        0.0021048880
O         0.0035254276       -0.0031300803        0.0115989703
O        -0.0004531551       -0.0013889139        0.0046468726
O         0.0034364226        0.0010354776       -0.0018784532
O         0.0083326607        0.0023930895       -0.0062034144
O        -0.0115745658       -0.0020941785       -0.0023392121
O         0.0028078181        0.0047520923       -0.0078207686
O         0.0067829684        0.0042660599        0.0054424146
O        -0.0095628186       -0.0084805688       -0.0105498533
O         0.0037007177        0.0191735471       -0.0036640718
O         0.0082463596        0.0034674441        0.0077568738
O        -0.0016854103        0.0083279222       -0.0094945266
O         0.0007142341        0.0097692713        0.0004457381
O         0.0046743736        0.0003611407       -0.0002153949
O        -0.0079797035       -0.0033401293       -0.0076252368
O        -0.0021164047       -0.0069890905        0.0022378140
O         0.0008486894        0.0017487406        0.0028099014
O        -0.0041856922        0.0094709139       -0.0017548817
O        -0.0025527216       -0.0062831130        0.0044021180
O        -0.0080706300        0.0023983504        0.0053107307
O        -0.0033625727       -0.0052347723        0.0081107272
O        -0.0025324002        0.0053624890        0.0009764790
O         0.0018026252        0.0130422607        0.0032979314
O         0.0050508818        0.0025837749        0.0050030993
O         0.0232288087       -0.0017846970        0.0109194349
O        -0.0019226996        0.0040750928       -0.0010109606
O        -0.0126398641       -0.0019040702       -0.0004569332
O         0.0063619588       -0.0031013206       -0.0110570150
O        -0.0031967765       -0.0025640993        0.0081654697
O        -0.0073236969        0.0098094460        0.0003450606
O         0.0026692965        0.0002672342        0.0061890808
O         0.0068467583       -0.0012296974        0.0017130557
O        -0.0016023526        0.0069863086        0.0016816507
O        -0.0066426597       -0.0107028590        0.0040043664
O         0.0010861412       -0.0237847404       -0.0016832262
O         0.0228468758        0.0020237327        0.0017199756
O        -0.0076182332        0.0053298173       -0.0076628171
O         0.0041910947       -0.0038925965       -0.0071649395
O         0.0022066518       -0.0105255405        0.0013810465
O        -0.0213659747        0.0016068143       -0.0059937841
O        -0.0025884222       -0.0042920453        0.0034248041
     192
 i =        2, E =     -5783.6170072316
Ti        -0.0023293307        0.0033625991        0.0025849515
Ti         0.0011351309       -0.0035772719       -0.0044365570
Ti        -0.0037354890       -0.0013410203       -0.0115128363
Ti         0.0009630418        0.0167426606        0.0045893422
Ti         0.0024923885       -0.0028996044        0.0032856975
Ti        -0.0036714598        0.0061478050       -0.0048174259
Ti        -0.0006509338        0.0042239058       -0.0063820613
Ti         0.0003773605        0.0070337534        0.0061963843
Ti        -0.0050023093       -0.0084768700       -0.0024975360
Ti        -0.0010456035       -0.0014942137       -0.0036941902
Ti        -0.0072856415       -0.0000393074        0.0022427190
Ti         0.0017788878        0.0011094198       -0.0035650264
Ti         0.0045743471       -0.0039743983       -0.0038205775
Ti         0.0029071538        0.0068655263        0.0150749614
Ti        -0.0103161633        0.0078501581        0.0021853357
Ti        -0.0021966355        0.0142217261       -0.0104115801
Ti         0.0004178844        0.0036192711       -0.0107943071
Ti        -0.0016766762        0.0052952455       -0.0055889619
Ti         0.0092757427        0.0046991214        0.0027624985
Ti         0.0010179925       -0.0031421172       -0.0112060460
Ti        -0.0043181034        0.0071726136       -0.0113350155
Ti        -0.0050635949       -0.0095985929       -0.0108687523
Ti         0.0041023074       -0.0014351649        0.0042839260
Ti        -0.0078684451        0.0086855490       -0.0012882235
Ti        -0.0060026351       -0.0023734710        0.0063582011
Ti        -0.0070242602       -0.0025079868        0.0042559334
Ti         0.0011177744        0.0059492937       -0.0016663087
Ti         0.0001754826        0.0092248036        0.0064799453
Ti         0.0061402354        0.0050302523        0.0063920356
Ti        -0.0011271568        0.0167203125       -0.0037499905
Ti         0.0014728515       -0.0003364489        0.0025273725
Ti        -0.0065099452       -0.0019311212        0.0061845672
Ti         0.0119445381       -0.0006189954       -0.0089525411
Ti        -0.0052235572        0.0112564842       -0.0053450125
Ti         0.0074140531       -0.0037052209       -0.0042891364
Ti         0.0145913582       -0.0067824527       -0.0095709281
Ti         0.0013331327        0.0007436900        0.0065261682
Ti        -0.0021405428        0.0001819309        0.0033704405
Ti        -0.0066076067        0.0062281402       -0.0075437139
Ti        -0.0036790791        0.0096100066       -0.0024797632
Ti        -0.0094223534        0.0007818802        0.0027208489
Ti         0.0049314052        0.0076686162        0.0057147047
Ti         0.0099754294       -0.0010024714        0.0029247119
Ti        -0.0032936889        0.0035176204        0.0030484894
Ti        -0.0010864935       -0.0041968440       -0.0115038866
Ti         0.0001401220       -0.0004644680       -0.0023958310
Ti         0.0110670187        0.0025683999       -0.0069908837
Ti         0.0013583888        0.0128951648       -0.0010916194
Ti        -0.0022631008        0.0066649088        0.0159444625
Ti        -0.0075150211        0.0041894857        0.0030555238
Ti        -0.0076479752        0.0044880665        0.0061060151
Ti        -0.0029114676       -0.0055642102       -0.0009949181
Ti         0.0073713922        0.0019946892       -0.0052163899
Ti         0.0057794599       -0.0081541837       -0.0016956045
Ti        -0.0031826182       -0.0033893336        0.0035538191
Ti         0.0068209190        0.0078748914       -0.0044972148
Ti        -0.0075957484        0.0003906207       -0.0033925024
Ti         0.0087942584       -0.0103585986       -0.0002209476
Ti         0.0035925733        0.0056344831        0.0043197455
Ti        -0.0039375993       -0.0035898782        0.0051778361
Ti        -0.0024028577       -0.0022413760        0.0008385303
Ti        -0.0037577186       -0.0094960662        0.0002973624
Ti         0.0049059180        0.0026589765        0.0053213987
Ti        -0.0089873605        0.0064262111        0.0007271350
O        -0.0011901153        0.0117320555       -0.0007459756
O         0.0017107739        0.0011470813        0.0057324450
O         0.0028087474       -0.0031740778        0.0067003173
O         0.0074325768        0.0012340142        0.0004568183
O        -0.0013183721       -0.0035097644       -0.0043892227
O         0.0001900288       -0.0073684017        0.0039249670
O         0.0020204345       -0.0054027235        0.0001470816
O         0.0076419333       -0.0011698445       -0.0018904407
O        -0.0020178295       -0.0054972360       -0.0038954938
O        -0.0021572557       -0.0119371224        0.0000397355
O        -0.0056769285       -0.0007664322        0.0087884386
O        -0.0039986391       -0.0025592890       -0.0015639241
O        -0.0017460725        0.0007399323        0.0060799425
O        -0.0005746413       -0.0077760625       -0.0024661809
O         0.0050201088       -0.0000226353       -0.0003179165
O         0.0013018454       -0.0029898232        0.0016836756
O         0.0035954572       -0.0046993606        0.0002784395
O         0.0046453352       -0.0021010123       -0.0050339434
O        -0.0013900486        0.0045483482        0.0002111125
O         0.0075834854        0.0045185277        0.0074784380
O         0.0000843461        0.0052878400        0.0085751496
O        -0.0025240744       -0.0067899514        0.0059864115
O        -0.0012432811       -0.0044333607       -0.0000363862
O        -0.0001832971        0.0071716258        0.0011038174
O        -0.0038394291       -0.0025939588        0.0042826867
O        -0.0030307111        0.0022709535        0.0072976506
O         0.0066135074       -0.0023140094        0.0003461322
O         0.0019214507       -0.0010866942        0.0001185678
O         0.0009617176        0.0041735443       -0.0073930484
O        -0.0065609141       -0.0003313253       -0.0010698290
O         0.0031764511       -0.0016364101       -0.0075383669
O         0.0013988896        0.0010366970       -0.0051981973
O         0.0009935418       -0.0144379843       -0.0010467599
O         0.0004708844        0.0029308915       -0.0024723363
O         0.0087453180       -0.0000908206       -0.0041238206
O        -0.0011623793       -0.0004886475        0.0021383618
O         0.0015903977       -0.0022593158        0.0021686459
O        -0.0003569441        0.0010947790        0.0049189402
O        -0.0091531127       -0.0004360310        0.0001926982
O        -0.0065483505        0.0001830577        0.0039687493
O        -0.0035451093       -0.0086910178        0.0074353101
O        -0.0037800343       -0.0030167132       -0.0037123060
O         0.0013154293        0.0054237965        0.0010491503
O        -0.0002552874       -0.0146182514        0.0021668360
O        -0.0041158563        0.0022834651       -0.0029586069
O        -0.0017838380       -0.0015864638       -0.0000371057
O        -0.0023470445       -0.0009401310       -0.0060429929
O         0.0101546461       -0.0018355067        0.0019129587
O        -0.0039559875       -0.0151346796       -0.0049065289
O         0.0040395372       -0.0046139844       -0.0076269903
O         0.0028933147       -0.0005980850       -0.0055279812
O         0.0019507743       -0.0026051694       -0.0016633993
O         0.0015207345       -0.0157528962       -0.0007891386
O         0.0017413993       -0.0001953585       -0.0039347082
O        -0.0096282818       -0.0023395273        0.0030988448
O        -0.0045726751       -0.0004136900        0.0066657608
O         0.0027215404        0.0038471531        0.0040890926
O        -0.0012942562       -0.0000687857        0.0025623051
O         0.0051590852       -0.0046487080        0.0061252497
O        -0.0067315629       -0.0028957665       -0.0000039581
O         0.0023573636       -0.0027662195       -0.0037786257
O        -0.0048860467        0.0075069094       -0.0042051222
O        -0.0112528734       -0.0056972542        0.0045096530
O        -0.0080319655       -0.0035932989        0.0022485039
O        -0.0036819464        0.0032527944        0.0067264234
O         0.0064387769        0.0040315880       -0.0005297580
O        -0.0087317233        0.0016698145        0.0044708195
O         0.0025007954       -0.0004145039        0.0000803871
O        -0.0000128610       -0.0097184588        0.0033546753
O        -0.0038984696        0.0056448375       -0.0051086320
O         0.0043549129        0.0007316380       -0.0027218841
O        -0.0082258831       -0.0004782606        0.0035728858
O         0.0046291553       -0.0044913402        0.0014117107
O         0.0039292573        0.0033483319       -0.0033733723
O        -0.0061626015        0.0030718789       -0.0002164964
O         0.0009894056        0.0031213378        0.0046833962
O        -0.0026954209       -0.0090192082        0.0064502465
O        -0.0001623586       -0.0025903723        0.0029716014
O         0.0094569276       -0.0034342293        0.0000987754
O        -0.0079689867       -0.0017881893       -0.0014651718
O         0.0021324327       -0.0002521490        0.0027958438
O        -0.0017104273       -0.0101394189        0.0039916696
O        -0.0039933598        0.0026503995        0.0057361551
O        -0.0044073918        0.0003640665        0.0005495991
O         0.0017311345       -0.0005530131       -0.0189606237
O         0.0017562035       -0.0012404849        0.0032759845
O         0.0035873214        0.0028891878       -0.0026219987
O         0.0108937980        0.0000731855        0.0040468402
O        -0.0008216534        0.0055641648       -0.0049595693
O         0.0006650276        0.0009278337        0.0047791709
O        -0.0008881952        0.0046536445        0.0008112901
O         0.0005162053       -0.0112932531        0.0019875563
O         0.0022053657       -0.0027408229        0.0018567400
O         0.0072702920        0.0038291342       -0.0012431887
O         0.0026813274        0.0026956565        0.0013748888
O         0.0028396201       -0.0037580956       -0.0058748499
O        -0.0005929876        0.0106419774       -0.0051596209
O         0.0040276285        0.0000168009        0.0017872476
O         0.0075582845        0.0012224188       -0.0069153006
O         0.0006919477        0.0011277278       -0.0020399806
O         0.0009591420       -0.0057606631       -0.0025412562
O         0.0001115202       -0.0063063588       -0.0038217051
O         0.0089067591       -0.0027137430        0.0054489642
O         0.0018903915       -0.0030711826        0.0006343889
O        -0.0006510555       -0.0034680654       -0.0008963594
O        -0.0028046070       -0.0073973618       -0.0011312728
O        -0.0029994754        0.0051605288        0.0032984229
O        -0.0040143710       -0.0012166088        0.0022889475
O         0.0036841468       -0.0008485612        0.0036243008
O        -0.0002491693       -0.0007463618       -0.0015374510
O         0.0002150780        0.0015210494       -0.0010209418
O         0.0138013576       -0.0041605836       -0.0036167078
O        -0.0001807707        0.0034572435        0.0042158062
O        -0.0034452211       -0.0022968250        0.0013327339
O         0.0036861753       -0.0001591563       -0.0003725830
O        -0.0062125412        0.0039460172        0.0064218501
O        -0.0011082897        0.0064757815        0.0018993061
O        -0.0042688959        0.0035586233       -0.0021696935
O         0.0028126953        0.0008910356       -0.0066653066
O        -0.0037219992        0.0102317353        0.0007446036
O        -0.0038302899        0.0028524236        0.0006066493
O        -0.0002577138       -0.0087800319       -0.0061207109
O         0.0100714045        0.0038191246        0.0012489063
O        -0.0013462476        0.0016646554        0.0016398754
O         0.0037450297        0.0000368134       -0.0035228856
O         0.0002596203       -0.0003475661        0.0010759234
O        -0.0081426535        0.0002907302       -0.0026228268
O         0.0001114676       -0.0003487844        0.0032086268
     192
 i =        3, E =     -5783.6537785290
Ti        -0.0022617657        0.0006636410        0.0025882328
Ti         0.0036107474       -0.0014427892       -0.0024377256
Ti        -0.0031409786       -0.0042138055       -0.0065585459
Ti         0.0003654029        0.0115440622        0.0009559025
Ti         0.0035647262        0.0015315232        0.0000508945
Ti        -0.0049340860        0.0038824803       -0.0038635864
Ti        -0.0031589166        0.0008963726       -0.0020985769
Ti         0.0001087683        0.0010109662        0.0035141895
Ti        -0.0042416978       -0.0030365934       -0.0014227940
Ti         0.0014412364       -0.0034438525       -0.0024962975
Ti        -0.0065159176       -0.0018495204       -0.0003268324
Ti         0.0018834300        0.0003689127       -0.0005892877
Ti         0.0056485596       -0.0058239513       -0.0035118339
Ti         0.0007789323        0.0063050299        0.0084393701
Ti        -0.0044415610        0.0014201759       -0.0017423402
Ti        -0.0013462710        0.0112864633       -0.0041892347
Ti        -0.0003562175        0.0016835870       -0.0044925447
Ti         0.0014688471        0.0056232171        0.0005865857
Ti         0.0084604058        0.0070358107       -0.0012041688
Ti         0.0023608895       -0.0050867895       -0.0057706922
Ti         0.0016117292       -0.0001322168       -0.0067400610
Ti        -0.0044464696       -0.0072994413       -0.0028396051
Ti         0.0043890214        0.0026432663        0.0053354522
Ti        -0.0082905762        0.0069178425       -0.0022183727
Ti        -0.0041631383       -0.0008304391        0.0045812466
Ti        -0.0075365195        0.0001716490        0.0001433387
Ti         0.0044117367        0.0034235387       -0.0010868730
Ti        -0.0013072640        0.0045389513        0.0007177073
Ti         0.0020086943        0.0069709883        0.0029872640
Ti         0.0025997976        0.0084347315        0.0043238572
Ti        -0.0012240720        0.0026104080        0.0026342351
Ti        -0.0051551198       -0.0001107855        0.0028362562
Ti         0.0079883710        0.0006531144       -0.0040662560
Ti        -0.0046181378        0.0035060491       -0.0029689941
Ti         0.0035268362       -0.0016987678       -0.0062731368
Ti         0.0143297986       -0.0058672465       -0.0057463213
Ti        -0.0001966118       -0.0001687837        0.0028639671
Ti        -0.0033284518       -0.0001493271        0.0048446336
Ti        -0.0054378932        0.0040803976       -0.0038443487
Ti        -0.0023147810        0.0104752710       -0.0021222177
Ti        -0.0080273898        0.0019869608        0.0053291615
Ti         0.0035713325        0.0066610860        0.0005344774
Ti         0.0053354763        0.0017120500       -0.0049564337
Ti        -0.0012100812        0.0054740328        0.0014876923
Ti         0.0006323806       -0.0039111928       -0.0058663126
Ti        -0.0043353383       -0.0018364982       -0.0018165318
Ti         0.0081212445        0.0023936575       -0.0047375074
Ti         0.0029302277        0.0075704320       -0.0008092317
Ti        -0.0016030182        0.0072270777        0.0061755034
Ti        -0.0023107367        0.0029492322       -0.0006164244
Ti        -0.0039454548        0.0067190177        0.0036256599
Ti        -0.0053197013       -0.0049178547        0.0021262318
Ti         0.0023063593        0.0012290387       -0.0020748678
Ti         0.0019723910       -0.0034849434       -0.0012441017
Ti        -0.0001738355       -0.0028900234        0.0027663455
Ti         0.0025177539        0.0044604144       -0.0011423207
Ti        -0.0023851927        0.0011436359       -0.0017019846
Ti         0.0063119760       -0.0119539596        0.0001866516
Ti         0.0020888184        0.0051276614        0.0042141314
Ti        -0.0040088325       -0.0018275046        0.0022539323
Ti        -0.0035623166        0.0011781373        0.0041470406
Ti        -0.0023075136       -0.0095634615        0.0010055068
Ti         0.0037116876        0.0009013233        0.0023248697
Ti        -0.0045799049        0.0049745397       -0.0009828377
O        -0.0007370067        0.0028829031        0.0019124861
O         0.0029125954       -0.0025991218        0.0044624341
O        -0.0046111397       -0.0002316631        0.0038825598
O         0.0018702250        0.0019909773        0.0013176691
O         0.0020170525        0.0002803585       -0.0027839891
O         0.0009278425       -0.0038434396        0.0025890509
O         0.0027867944       -0.0019437262        0.0034347064
O         0.0046966485        0.0006704725       -0.0006221516
O         0.0028198453       -0.0056756171       -0.0011840296
O        -0.0028939951       -0.0041711492       -0.0008211497
O         0.0017484920        0.0000598794        0.0031207051
O         0.0032168214       -0.0010531906       -0.0008952369
O        -0.0039357252       -0.0011733924        0.0031232023
O        -0.0018140950       -0.0027254704       -0.0023840700
O         0.0035911558       -0.0040772305        0.0010419879
O         0.0033438424       -0.0011374397        0.0012519304
O         0.0008396046        0.0016721724       -0.0006661534
O         0.0037553127       -0.0007841482       -0.0023829564
O        -0.0028672563        0.0005524393        0.0009467912
O         0.0043975695        0.0033996561        0.0028041734
O         0.0012409669        0.0011623147        0.0033462893
O         0.0035650482       -0.0020929084        0.0043554605