 DBCSR| CPU Multiplication driver                                           XSMM (U)
 DBCSR| Multrec recursion limit                                              512 (U)
 DBCSR| Multiplication stack size                                           1000 (D)
 DBCSR| Maximum elements for images                                    UNLIMITED (U)
 DBCSR| Multiplicative factor virtual images                                   1 (U)
 DBCSR| Use multiplication densification                                       T (D)
 DBCSR| Multiplication size stacks                                             3 (U)
 DBCSR| Use memory pool for CPU allocation                                     F (U)
 DBCSR| Number of 3D layers                                               SINGLE (U)
 DBCSR| Use MPI memory allocation                                              F (U)
 DBCSR| Use RMA algorithm                                                      F (U)
 DBCSR| Use Communication thread                                               T (U)
 DBCSR| Communication thread load                                             87 (D)
 DBCSR| MPI: My process id                                                     0
 DBCSR| MPI: Number of processes                                             128
 DBCSR| OMP: Current number of threads                                         1
 DBCSR| OMP: Max number of threads                                             1
 DBCSR| Split modifier for TAS multiplication algorithm                  1.0E+00 (U)


  **** **** ******  **  PROGRAM STARTED AT               2025-06-17 07:52:02.179
 ***** ** ***  *** **   PROGRAM STARTED ON                             nid005841
 **    ****   ******    PROGRAM STARTED BY                                cahart
 ***** **    ** ** **   PROGRAM PROCESS ID                                 92972
  **** **  *******  **  PROGRAM STARTED IN /mnt/lustre/a2fs-work2/work/e05/e05/c
                                           ahart/postdoc2/work/group/tio2/anatas
                                           e/cell-441/geo-opt/mp-390/neutral-fro
                                           m-hole/pbe-u-o/u-8.0

 CP2K| version string:                                       CP2K version 2024.3
 CP2K| source code revision number:                                  git:6712648
 CP2K| cp2kflags: omp libint fftw3 libxc libgrpp elpa parallel scalapack cosma x
 CP2K|            smm plumed2 spglib mkl sirius libvori libbqb libvdwxc hdf5
 CP2K| is freely available from                            https://www.cp2k.org/
 CP2K| Program compiled at                       Thu 12 Sep 2024 10:20:47 AM BST
 CP2K| Program compiled on                                                  ln04
 CP2K| Program compiled for                                                local
 CP2K| Data directory path    /mnt/lustre/a2fs-work1/work/y07/shared/apps/core/c
 CP2K| Input file name                                                 input.inp

 GLOBAL| Force Environment number                                              1
 GLOBAL| Basis set file name                                        BASIS_MOLOPT
 GLOBAL| Potential file name                                      GTH_POTENTIALS
 GLOBAL| MM Potential file name                                     MM_POTENTIAL
 GLOBAL| Coordinate file name                                         system.xyz
 GLOBAL| Method name                                                        CP2K
 GLOBAL| Project name                                                       tio2
 GLOBAL| Run type                                                         ENERGY
 GLOBAL| FFT library                                                       FFTW3
 GLOBAL| Diagonalization library                                            ELPA
 GLOBAL| DGEMM library                                                      BLAS
 GLOBAL| Minimum number of eigenvectors for ELPA usage                        16
 GLOBAL| Orthonormality check for eigenvectors                          DISABLED
 GLOBAL| Matrix multiplication library                                     COSMA
 GLOBAL| All-to-all communication in single precision                          F
 GLOBAL| FFTs using library dependent lengths                                  F
 GLOBAL| Grid backend                                                       AUTO
 GLOBAL| Global print level                                               MEDIUM
 GLOBAL| MPI I/O enabled                                                       T
 GLOBAL| Total number of message passing processes                           128
 GLOBAL| Number of threads for this process                                    1
 GLOBAL| This output is from process                                           0
 GLOBAL| Stack size for threads created by OpenMP (OMP_STACKSIZE)        default
 GLOBAL| CPU model name                          AMD EPYC 7742 64-Core Processor
 GLOBAL| CPUID                                                              1002

 MEMORY| system memory details [Kb]
 MEMORY|                        rank 0           min           max       average
 MEMORY| MemTotal            263341976     263341976     263341976     263341976
 MEMORY| MemFree             235926588     235926332     235926588     235926534
 MEMORY| Buffers                     0             0             0             0
 MEMORY| Cached                1741900       1741900       1741900       1741900
 MEMORY| Slab                  5161072       5161064       5161072       5161070
 MEMORY| SReclaimable           115660        115660        115660        115660
 MEMORY| MemLikelyFree       237784148     237783892     237784148     237784094


 *** Fundamental physical constants (SI units) ***

 *** Literature: B. J. Mohr and B. N. Taylor,
 ***             CODATA recommended values of the fundamental physical
 ***             constants: 2006, Web Version 5.1
 ***             http://physics.nist.gov/constants

 Speed of light in vacuum [m/s]                             2.99792458000000E+08
 Magnetic constant or permeability of vacuum [N/A**2]       1.25663706143592E-06
 Electric constant or permittivity of vacuum [F/m]          8.85418781762039E-12
 Planck constant (h) [J*s]                                  6.62606896000000E-34
 Planck constant (h-bar) [J*s]                              1.05457162825177E-34
 Elementary charge [C]                                      1.60217648700000E-19
 Electron mass [kg]                                         9.10938215000000E-31
 Electron g factor [ ]                                     -2.00231930436220E+00
 Proton mass [kg]                                           1.67262163700000E-27
 Fine-structure constant                                    7.29735253760000E-03
 Rydberg constant [1/m]                                     1.09737315685270E+07
 Avogadro constant [1/mol]                                  6.02214179000000E+23
 Boltzmann constant [J/K]                                   1.38065040000000E-23
 Atomic mass unit [kg]                                      1.66053878200000E-27
 Bohr radius [m]                                            5.29177208590000E-11

 *** Conversion factors ***

 [u] -> [a.u.]                                              1.82288848426455E+03
 [Angstrom] -> [Bohr] = [a.u.]                              1.88972613288564E+00
 [a.u.] = [Bohr] -> [Angstrom]                              5.29177208590000E-01
 [a.u.] -> [s]                                              2.41888432650478E-17
 [a.u.] -> [fs]                                             2.41888432650478E-02
 [a.u.] -> [J]                                              4.35974393937059E-18
 [a.u.] -> [N]                                              8.23872205491840E-08
 [a.u.] -> [K]                                              3.15774647902944E+05
 [a.u.] -> [kJ/mol]                                         2.62549961709828E+03
 [a.u.] -> [kcal/mol]                                       6.27509468713739E+02
 [a.u.] -> [Pa]                                             2.94210107994716E+13
 [a.u.] -> [bar]                                            2.94210107994716E+08
 [a.u.] -> [atm]                                            2.90362800883016E+08
 [a.u.] -> [eV]                                             2.72113838565563E+01
 [a.u.] -> [Hz]                                             6.57968392072181E+15
 [a.u.] -> [1/cm] (wave numbers)                            2.19474631370540E+05
 [a.u./Bohr**2] -> [1/cm]                                   5.14048714338585E+03
 

 CELL_TOP| Volume [angstrom^3]:                                      2198.132028
 CELL_TOP| Vector a [angstrom    15.120     0.000     0.000   |a| =    15.120000
 CELL_TOP| Vector b [angstrom     0.000    15.120     0.000   |b| =    15.120000
 CELL_TOP| Vector c [angstrom     0.000     0.000     9.615   |c| =     9.615020
 CELL_TOP| Angle (b,c), alpha [degree]:                                90.000000
 CELL_TOP| Angle (a,c), beta  [degree]:                                90.000000
 CELL_TOP| Angle (a,b), gamma [degree]:                                90.000000
 CELL_TOP| Requested initial symmetry:                       MONOCLINIC_GAMMA_AB
 CELL_TOP| Numerically orthorhombic:                                         YES
 CELL_TOP| Periodicity                                                       XYZ

 *** WARNING in atoms_input.F:123 :: Overwriting coordinates. Active    ***
 *** coordinates read from &COORD section. Active coordinates READ from ***
 *** &COORD section                                                     ***


 GENERATE|  Preliminary Number of Bonds generated:                             0
 GENERATE|  Achieved consistency in connectivity generation.

 CELL| Volume [angstrom^3]:                                          2198.132028
 CELL| Vector a [angstrom]:      15.120     0.000     0.000   |a| =    15.120000
 CELL| Vector b [angstrom]:       0.000    15.120     0.000   |b| =    15.120000
 CELL| Vector c [angstrom]:       0.000     0.000     9.615   |c| =     9.615020
 CELL| Angle (b,c), alpha [degree]:                                    90.000000
 CELL| Angle (a,c), beta  [degree]:                                    90.000000
 CELL| Angle (a,b), gamma [degree]:                                    90.000000
 CELL| Requested initial symmetry:                           MONOCLINIC_GAMMA_AB
 CELL| Numerically orthorhombic:                                             YES
 CELL| Periodicity                                                           XYZ

 CELL_REF| Volume [angstrom^3]:                                      2198.132028
 CELL_REF| Vector a [angstrom    15.120     0.000     0.000   |a| =    15.120000
 CELL_REF| Vector b [angstrom     0.000    15.120     0.000   |b| =    15.120000
 CELL_REF| Vector c [angstrom     0.000     0.000     9.615   |c| =     9.615020
 CELL_REF| Angle (b,c), alpha [degree]:                                90.000000
 CELL_REF| Angle (a,c), beta  [degree]:                                90.000000
 CELL_REF| Angle (a,b), gamma [degree]:                                90.000000
 CELL_REF| Requested initial symmetry:                       MONOCLINIC_GAMMA_AB
 CELL_REF| Numerically orthorhombic:                                         YES
 CELL_REF| Periodicity                                                       XYZ

 *******************************************************************************
 *******************************************************************************
 **                                                                           **
 **     #####                         ##              ##                      **
 **    ##   ##            ##          ##              ##                      **
 **   ##     ##                       ##            ######                    **
 **   ##     ##  ##   ##  ##   #####  ##  ##   ####   ##    #####    #####    **
 **   ##     ##  ##   ##  ##  ##      ## ##   ##      ##   ##   ##  ##   ##   **
 **   ##  ## ##  ##   ##  ##  ##      ####     ###    ##   ######   ######    **
 **    ##  ###   ##   ##  ##  ##      ## ##      ##   ##   ##       ##        **
 **     #######   #####   ##   #####  ##  ##  ####    ##    #####   ##        **
 **           ##                                                    ##        **
 **                                                                           **
 **                                                ... make the atoms dance   **
 **                                                                           **
 **            Copyright (C) by CP2K developers group (2000-2024)             **
 **                      J. Chem. Phys. 152, 194103 (2020)                    **
 **                                                                           **
 *******************************************************************************

 DFT| Spin unrestricted (spin-polarized) Kohn-Sham calculation               UKS
 DFT| Multiplicity                                                             1
 DFT| Number of spin states                                                    2
 DFT| Charge                                                                   0
 DFT| Self-interaction correction (SIC)                                       NO
 DFT| Cutoffs: density                                              1.000000E-10
 DFT|          gradient                                             1.000000E-10
 DFT|          tau                                                  1.000000E-10
 DFT|          cutoff_smoothing_range                               0.000000E+00
 DFT| XC density smoothing                                                  NONE
 DFT| XC derivatives                                                          PW

 DFT+U| Method                                                          MULLIKEN
 DFT+U| Check atomic kind information for details

 FUNCTIONAL| PBE:
 FUNCTIONAL| J.P.Perdew, K.Burke, M.Ernzerhof, Phys. Rev. Letter, vol. 77, n 18,
 FUNCTIONAL|  pp. 3865-3868, (1996) {spin polarized}                            


 QS| Method:                                                                 GPW
 QS| Density plane wave grid type                        NON-SPHERICAL FULLSPACE
 QS| Number of grid levels:                                                    4
 QS| Density cutoff [a.u.]:                                                300.0
 QS| Multi grid cutoff [a.u.]: 1) grid level                               300.0
 QS|                           2) grid level                               100.0
 QS|                           3) grid level                                33.3
 QS|                           4) grid level                                11.1
 QS| Grid level progression factor:                                          3.0
 QS| Relative density cutoff [a.u.]:                                        20.0
 QS| Interaction thresholds: eps_pgf_orb:                                1.0E-06
 QS|                         eps_filter_matrix:                          0.0E+00
 QS|                         eps_core_charge:                            1.0E-14
 QS|                         eps_rho_gspace:                             1.0E-12
 QS|                         eps_rho_rspace:                             1.0E-12
 QS|                         eps_gvg_rspace:                             1.0E-06
 QS|                         eps_ppl:                                    1.0E-02
 QS|                         eps_ppnl:                                   1.0E-08


 ATOMIC KIND INFORMATION

  1. Atomic kind: Ti                                    Number of atoms:      64

     Orbital Basis Set                                    DZVP-MOLOPT-SR-GTH-q12

       Number of orbital shell sets:                                           1
       Number of orbital shells:                                               8
       Number of primitive Cartesian functions:                                6
       Number of Cartesian basis functions:                                   31
       Number of spherical basis functions:                                   26
       Norm type:                                                              2

       Normalised Cartesian orbitals:

                        Set   Shell   Orbital            Exponent    Coefficient

                          1       1    2s                7.884570       0.015554
                                                         3.894698       0.963603
                                                         1.513589      -0.631435
                                                         0.596768      -0.343022
                                                         0.222222      -0.006534
                                                         0.077078       0.007652

                          1       2    3s                7.884570      -0.009340
                                                         3.894698       0.212624
                                                         1.513589      -0.258368
                                                         0.596768      -0.226206
                                                         0.222222       0.039438
                                                         0.077078       0.107179

                          1       3    4s                7.884570       0.276563
                                                         3.894698       0.105452
                                                         1.513589       0.085149
                                                         0.596768       0.882541
                                                         0.222222      -0.696223
                                                         0.077078       0.156638

                          1       4    3px               7.884570      -2.034794
                                                         3.894698       0.782008
                                                         1.513589       1.253903
                                                         0.596768       0.347823
                                                         0.222222       0.016778
                                                         0.077078      -0.000433
                          1       4    3py               7.884570      -2.034794
                                                         3.894698       0.782008
                                                         1.513589       1.253903
                                                         0.596768       0.347823
                                                         0.222222       0.016778
                                                         0.077078      -0.000433
                          1       4    3pz               7.884570      -2.034794
                                                         3.894698       0.782008
                                                         1.513589       1.253903
                                                         0.596768       0.347823
                                                         0.222222       0.016778
                                                         0.077078      -0.000433

                          1       5    4px               7.884570       0.376572
                                                         3.894698      -0.182875
                                                         1.513589      -0.474776
                                                         0.596768      -0.081757
                                                         0.222222       0.064432
                                                         0.077078       0.047279
                          1       5    4py               7.884570       0.376572
                                                         3.894698      -0.182875
                                                         1.513589      -0.474776
                                                         0.596768      -0.081757
                                                         0.222222       0.064432
                                                         0.077078       0.047279
                          1       5    4pz               7.884570       0.376572
                                                         3.894698      -0.182875
                                                         1.513589      -0.474776
                                                         0.596768      -0.081757
                                                         0.222222       0.064432
                                                         0.077078       0.047279

                          1       6    4dx2              7.884570       3.047350
                                                         3.894698       3.289529
                                                         1.513589       1.060616
                                                         0.596768       0.249930
                                                         0.222222       0.038806
                                                         0.077078       0.002319
                          1       6    4dxy              7.884570       5.278165
                                                         3.894698       5.697631
                                                         1.513589       1.837041
                                                         0.596768       0.432892
                                                         0.222222       0.067214
                                                         0.077078       0.004017
                          1       6    4dxz              7.884570       5.278165
                                                         3.894698       5.697631
                                                         1.513589       1.837041
                                                         0.596768       0.432892
                                                         0.222222       0.067214
                                                         0.077078       0.004017
                          1       6    4dy2              7.884570       3.047350
                                                         3.894698       3.289529
                                                         1.513589       1.060616
                                                         0.596768       0.249930
                                                         0.222222       0.038806
                                                         0.077078       0.002319
                          1       6    4dyz              7.884570       5.278165
                                                         3.894698       5.697631
                                                         1.513589       1.837041
                                                         0.596768       0.432892
                                                         0.222222       0.067214
                                                         0.077078       0.004017
                          1       6    4dz2              7.884570       3.047350
                                                         3.894698       3.289529
                                                         1.513589       1.060616
                                                         0.596768       0.249930
                                                         0.222222       0.038806
                                                         0.077078       0.002319

                          1       7    5dx2              7.884570      -2.119015
                                                         3.894698      -1.237751
                                                         1.513589      -0.746777
                                                         0.596768      -0.071514
                                                         0.222222       0.004086
                                                         0.077078       0.017595
                          1       7    5dxy              7.884570      -3.670241
                                                         3.894698      -2.143848
                                                         1.513589      -1.293455
                                                         0.596768      -0.123865
                                                         0.222222       0.007077
                                                         0.077078       0.030475
                          1       7    5dxz              7.884570      -3.670241
                                                         3.894698      -2.143848
                                                         1.513589      -1.293455
                                                         0.596768      -0.123865
                                                         0.222222       0.007077
                                                         0.077078       0.030475
                          1       7    5dy2              7.884570      -2.119015
                                                         3.894698      -1.237751
                                                         1.513589      -0.746777
                                                         0.596768      -0.071514
                                                         0.222222       0.004086
                                                         0.077078       0.017595
                          1       7    5dyz              7.884570      -3.670241
                                                         3.894698      -2.143848
                                                         1.513589      -1.293455
                                                         0.596768      -0.123865
                                                         0.222222       0.007077
                                                         0.077078       0.030475
                          1       7    5dz2              7.884570      -2.119015
                                                         3.894698      -1.237751
                                                         1.513589      -0.746777
                                                         0.596768      -0.071514
                                                         0.222222       0.004086
                                                         0.077078       0.017595

                          1       8    5fx3              7.884570      -0.342058
                                                         3.894698       0.375798
                                                         1.513589      -0.706469
                                                         0.596768      -0.229994
                                                         0.222222      -0.012723
                                                         0.077078       0.003932
                          1       8    5fx2y             7.884570      -0.764866
                                                         3.894698       0.840310
                                                         1.513589      -1.579712
                                                         0.596768      -0.514282
                                                         0.222222      -0.028450
                                                         0.077078       0.008792
                          1       8    5fx2z             7.884570      -0.764866
                                                         3.894698       0.840310
                                                         1.513589      -1.579712
                                                         0.596768      -0.514282
                                                         0.222222      -0.028450
                                                         0.077078       0.008792
                          1       8    5fxy2             7.884570      -0.764866
                                                         3.894698       0.840310
                                                         1.513589      -1.579712
                                                         0.596768      -0.514282
                                                         0.222222      -0.028450
                                                         0.077078       0.008792
                          1       8    5fxyz             7.884570      -1.324787
                                                         3.894698       1.455460
                                                         1.513589      -2.736142
                                                         0.596768      -0.890763
                                                         0.222222      -0.049276
                                                         0.077078       0.015229
                          1       8    5fxz2             7.884570      -0.764866
                                                         3.894698       0.840310
                                                         1.513589      -1.579712
                                                         0.596768      -0.514282
                                                         0.222222      -0.028450
                                                         0.077078       0.008792
                          1       8    5fy3              7.884570      -0.342058
                                                         3.894698       0.375798
                                                         1.513589      -0.706469
                                                         0.596768      -0.229994
                                                         0.222222      -0.012723
                                                         0.077078       0.003932
                          1       8    5fy2z             7.884570      -0.764866
                                                         3.894698       0.840310
                                                         1.513589      -1.579712
                                                         0.596768      -0.514282
                                                         0.222222      -0.028450
                                                         0.077078       0.008792
                          1       8    5fyz2             7.884570      -0.764866
                                                         3.894698       0.840310
                                                         1.513589      -1.579712
                                                         0.596768      -0.514282
                                                         0.222222      -0.028450
                                                         0.077078       0.008792
                          1       8    5fz3              7.884570      -0.342058
                                                         3.894698       0.375798
                                                         1.513589      -0.706469
                                                         0.596768      -0.229994
                                                         0.222222      -0.012723
                                                         0.077078       0.003932

       Atomic covalent radius [Angstrom]:                                  1.320

       Atomic van der Waals radius [Angstrom]:                             1.760

     GTH Potential information for                                   GTH-PBE-q12

       Description:                       Goedecker-Teter-Hutter pseudopotential
                                           Goedecker et al., PRB 54, 1703 (1996)
                                          Hartwigsen et al., PRB 58, 3641 (1998)
                                                      Krack, TCA 114, 145 (2005)

       Gaussian exponent of the core charge distribution:               3.462604
       Electronic configuration (s p d ...):                           4   6   2

       Parameters of the local part of the GTH pseudopotential:

                          rloc        C1          C2          C3          C4
                        0.380000    8.711442   -0.700287

       Parameters of the non-local part of the GTH pseudopotential:

                   l      r(l)      h(i,j,l)

                   0    0.337771    2.575264    3.692971
                                    3.692971   -4.767605
                   1    0.242531   -4.630541    8.870875
                                    8.870875  -10.496161
                   2    0.243317   -9.406653

  2. Atomic kind: O                                     Number of atoms:     128

     Orbital Basis Set                                     DZVP-MOLOPT-SR-GTH-q6

       Number of orbital shell sets:                                           1
       Number of orbital shells:                                               5
       Number of primitive Cartesian functions:                                5
       Number of Cartesian basis functions:                                   14
       Number of spherical basis functions:                                   13
       Norm type:                                                              2

       Normalised Cartesian orbitals:

                        Set   Shell   Orbital            Exponent    Coefficient

                          1       1    2s               10.389228       0.396646
                                                         3.849621       0.208811
                                                         1.388401      -0.301641
                                                         0.496955      -0.274061
                                                         0.162492      -0.033677

                          1       2    3s               10.389228       0.303673
                                                         3.849621       0.240943
                                                         1.388401      -0.313066
                                                         0.496955      -0.043055
                                                         0.162492       0.213991

                          1       3    3px              10.389228      -1.530415
                                                         3.849621      -1.371928
                                                         1.388401      -0.761951
                                                         0.496955      -0.253695
                                                         0.162492      -0.035541
                          1       3    3py              10.389228      -1.530415
                                                         3.849621      -1.371928
                                                         1.388401      -0.761951
                                                         0.496955      -0.253695
                                                         0.162492      -0.035541
                          1       3    3pz              10.389228      -1.530415
                                                         3.849621      -1.371928
                                                         1.388401      -0.761951
                                                         0.496955      -0.253695
                                                         0.162492      -0.035541

                          1       4    4px              10.389228      -0.565392
                                                         3.849621      -0.038231
                                                         1.388401      -0.382373
                                                         0.496955       0.179070
                                                         0.162492       0.122714
                          1       4    4py              10.389228      -0.565392
                                                         3.849621      -0.038231
                                                         1.388401      -0.382373
                                                         0.496955       0.179070
                                                         0.162492       0.122714
                          1       4    4pz              10.389228      -0.565392
                                                         3.849621      -0.038231
                                                         1.388401      -0.382373
                                                         0.496955       0.179070
                                                         0.162492       0.122714

                          1       5    4dx2             10.389228       1.867377
                                                         3.849621       0.670994
                                                         1.388401       1.353441
                                                         0.496955       0.273538
                                                         0.162492       0.006620
                          1       5    4dxy             10.389228       3.234392
                                                         3.849621       1.162195
                                                         1.388401       2.344229
                                                         0.496955       0.473781
                                                         0.162492       0.011466
                          1       5    4dxz             10.389228       3.234392
                                                         3.849621       1.162195
                                                         1.388401       2.344229
                                                         0.496955       0.473781
                                                         0.162492       0.011466
                          1       5    4dy2             10.389228       1.867377
                                                         3.849621       0.670994
                                                         1.388401       1.353441
                                                         0.496955       0.273538
                                                         0.162492       0.006620
                          1       5    4dyz             10.389228       3.234392
                                                         3.849621       1.162195
                                                         1.388401       2.344229
                                                         0.496955       0.473781
                                                         0.162492       0.011466
                          1       5    4dz2             10.389228       1.867377
                                                         3.849621       0.670994
                                                         1.388401       1.353441
                                                         0.496955       0.273538
                                                         0.162492       0.006620

       Atomic covalent radius [Angstrom]:                                  0.730

       Atomic van der Waals radius [Angstrom]:                             1.520

     GTH Potential information for                                    GTH-PBE-q6

       Description:                       Goedecker-Teter-Hutter pseudopotential
                                           Goedecker et al., PRB 54, 1703 (1996)
                                          Hartwigsen et al., PRB 58, 3641 (1998)
                                                      Krack, TCA 114, 145 (2005)

       Gaussian exponent of the core charge distribution:               8.360253
       Electronic configuration (s p d ...):                               2   4

       Parameters of the local part of the GTH pseudopotential:

                          rloc        C1          C2          C3          C4
                        0.244554  -16.667215    2.487311

       Parameters of the non-local part of the GTH pseudopotential:

                   l      r(l)      h(i,j,l)

                   0    0.220956   18.337458
                   1    0.211332

     A DFT+U correction is applied to atoms of this atomic kind:
       Angular quantum momentum number L:                                      1
       U(eff) = (U - J) value in [eV]:                                     8.000


 MOLECULE KIND INFORMATION


 All atoms are their own molecule, skipping detailed information


 TOTAL NUMBERS AND MAXIMUM NUMBERS

  Total number of            - Atomic kinds:                                   2
                             - Atoms:                                        192
                             - Shell sets:                                   192
                             - Shells:                                      1152
                             - Primitive Cartesian functions:               1024
                             - Cartesian basis functions:                   3776
                             - Spherical basis functions:                   3328

  Maximum angular momentum of- Orbital basis functions:                        3
                             - Local part of the GTH pseudopotential:          2
                             - Non-local part of the GTH pseudopotential:      3


 MODULE QUICKSTEP: ATOMIC COORDINATES IN ANGSTROM

   Atom Kind Element         X             Y             Z       Z(eff)     Mass
      1    1 Ti   22      0.023975     -0.006287     -0.015481  12.0000  47.8670
      2    1 Ti   22      1.898524      1.871387      4.855924  12.0000  47.8670
      3    1 Ti   22      0.000159      1.898965      2.345287  12.0000  47.8670
      4    1 Ti   22      1.908983     -0.016866      7.199679  12.0000  47.8670
      5    1 Ti   22     -0.019263      3.788873      0.003355  12.0000  47.8670
      6    1 Ti   22      1.872796     13.225553      4.789617  12.0000  47.8670
      7    1 Ti   22     11.361691      1.888048      2.401400  12.0000  47.8670
      8    1 Ti   22      5.668286     -0.004752      7.202208  12.0000  47.8670
      9    1 Ti   22      1.917758      3.786218      7.274152  12.0000  47.8670
     10    1 Ti   22      0.010530     13.236313      2.396507  12.0000  47.8670
     11    1 Ti   22      5.681498      1.873900      4.830192  12.0000  47.8670
     12    1 Ti   22     11.335957      0.009077      0.000983  12.0000  47.8670
     13    1 Ti   22      3.790648     -0.018255      0.003965  12.0000  47.8670
     14    1 Ti   22     13.246956      1.883645      4.812854  12.0000  47.8670
     15    1 Ti   22     13.269066      0.006462      7.260825  12.0000  47.8670
     16    1 Ti   22      3.784912      1.874299      2.373526  12.0000  47.8670
     17    1 Ti   22      1.893251      5.673386      4.791560  12.0000  47.8670
     18    1 Ti   22     -0.021420     11.345404      0.000461  12.0000  47.8670
     19    1 Ti   22      0.004487      5.676363      2.404803  12.0000  47.8670
     20    1 Ti   22      1.900159     11.343756      7.224360  12.0000  47.8670
     21    1 Ti   22     -0.017424      7.566596      0.015285  12.0000  47.8670
     22    1 Ti   22      1.906011      9.471753      4.804977  12.0000  47.8670
     23    1 Ti   22      7.586286      1.871281      2.378621  12.0000  47.8670
     24    1 Ti   22      9.469467      0.001325      7.223399  12.0000  47.8670
     25    1 Ti   22      1.879088      7.567476      7.203993  12.0000  47.8670
     26    1 Ti   22     -0.020688      9.466048      2.391255  12.0000  47.8670
     27    1 Ti   22      9.489633      1.873960      4.821676  12.0000  47.8670
     28    1 Ti   22      7.558536     -0.010674     -0.022581  12.0000  47.8670
     29    1 Ti   22      3.786616      3.773499      0.001191  12.0000  47.8670
     30    1 Ti   22     13.222029     13.229636      4.807547  12.0000  47.8670
     31    1 Ti   22     11.345483      5.654344      2.398227  12.0000  47.8670
     32    1 Ti   22      5.684439     11.339387      7.216847  12.0000  47.8670
     33    1 Ti   22     13.241921      3.804948      7.202062  12.0000  47.8670
     34    1 Ti   22      3.790792     13.233642      2.409009  12.0000  47.8670
     35    1 Ti   22      5.700068      5.660516      4.800373  12.0000  47.8670
     36    1 Ti   22     11.346624     11.340235      0.005204  12.0000  47.8670
     37    1 Ti   22     11.350966     13.246568      2.375854  12.0000  47.8670
     38    1 Ti   22      5.687710      3.785003      7.194958  12.0000  47.8670
     39    1 Ti   22      3.782397     11.339514     -0.002339  12.0000  47.8670
     40    1 Ti   22     13.238191      5.668280      4.808880  12.0000  47.8670
     41    1 Ti   22      5.650921     13.216215      4.806526  12.0000  47.8670
     42    1 Ti   22     11.361211      3.791105     -0.030195  12.0000  47.8670
     43    1 Ti   22     13.261961     11.351969      7.206843  12.0000  47.8670
     44    1 Ti   22      3.785362      5.676684      2.370375  12.0000  47.8670
     45    1 Ti   22      3.772404      7.578912     -0.005448  12.0000  47.8670
     46    1 Ti   22     13.249009      9.465775      4.799152  12.0000  47.8670
     47    1 Ti   22      7.554431      5.631781      2.378015  12.0000  47.8670
     48    1 Ti   22      9.468501     11.348861      7.232287  12.0000  47.8670
     49    1 Ti   22     13.236224      7.570315      7.197678  12.0000  47.8670
     50    1 Ti   22      3.756431      9.464324      2.428618  12.0000  47.8670
     51    1 Ti   22      9.467824      5.665302      4.778412  12.0000  47.8670
     52    1 Ti   22      7.565755     11.367405     -0.014348  12.0000  47.8670
     53    1 Ti   22     11.341499      9.463149      2.389182  12.0000  47.8670
     54    1 Ti   22      5.663526      7.560910      7.236628  12.0000  47.8670
     55    1 Ti   22      5.699232      9.451486      4.791805  12.0000  47.8670
     56    1 Ti   22     11.352422      7.560172     -0.002883  12.0000  47.8670
     57    1 Ti   22      9.466507      3.798406      7.179663  12.0000  47.8670
     58    1 Ti   22      7.576219     13.238653      2.398587  12.0000  47.8670
     59    1 Ti   22      7.597998      3.791049     -0.031167  12.0000  47.8670
     60    1 Ti   22      9.410811     13.222583      4.796310  12.0000  47.8670
     61    1 Ti   22      7.584477      7.587433     -0.015326  12.0000  47.8670
     62    1 Ti   22      9.494238      9.458530      4.789693  12.0000  47.8670
     63    1 Ti   22      7.577303      9.444284      2.358127  12.0000  47.8670
     64    1 Ti   22      9.461178      7.580895      7.173236  12.0000  47.8670
     65    2 O     8     -0.001440     -0.001499      2.003683   6.0000  15.9994
     66    2 O     8      1.882961      1.886805      6.812836   6.0000  15.9994
     67    2 O     8      0.012359      1.885816      4.400439   6.0000  15.9994
     68    2 O     8      1.890780     -0.004797      9.210484   6.0000  15.9994
     69    2 O     8      1.882886     -0.004550      5.217145   6.0000  15.9994
     70    2 O     8     -0.000516      1.884408      0.404303   6.0000  15.9994
     71    2 O     8      1.886440      1.880430      2.815283   6.0000  15.9994
     72    2 O     8      0.006618     -0.004543      7.613658   6.0000  15.9994
     73    2 O     8      0.002315      3.769176      1.999855   6.0000  15.9994
     74    2 O     8      1.876853     13.235373      6.803196   6.0000  15.9994
     75    2 O     8     11.353799      1.886601      4.401062   6.0000  15.9994
     76    2 O     8      5.659212      0.006377      9.202964   6.0000  15.9994
     77    2 O     8      1.893293      3.771825      5.209045   6.0000  15.9994
     78    2 O     8      0.004183     13.235601      0.399954   6.0000  15.9994
     79    2 O     8      5.684449      1.887512      2.822508   6.0000  15.9994
     80    2 O     8     11.350837     -0.002169      7.614731   6.0000  15.9994
     81    2 O     8      3.776028      0.000982      7.608587   6.0000  15.9994
     82    2 O     8     13.247391      1.885464      2.819760   6.0000  15.9994
     83    2 O     8     13.234135     -0.002647      9.214087   6.0000  15.9994
     84    2 O     8      3.781267      1.883713      4.398984   6.0000  15.9994
     85    2 O     8      1.874876      5.654802      6.805055   6.0000  15.9994
     86    2 O     8      0.010124     11.350397      1.994104   6.0000  15.9994
     87    2 O     8      0.008826      5.670343      0.418003   6.0000  15.9994
     88    2 O     8      1.881281     11.350089      5.200065   6.0000  15.9994
     89    2 O     8      0.001895      7.575190      1.991960   6.0000  15.9994
     90    2 O     8      1.901204      9.463490      6.760706   6.0000  15.9994
     91    2 O     8      7.582327      1.877843      4.418136   6.0000  15.9994
     92    2 O     8      9.462429      0.003327      9.208925   6.0000  15.9994
     93    2 O     8      1.881713      7.573110      5.211102   6.0000  15.9994
     94    2 O     8      0.006711      9.465418      0.406740   6.0000  15.9994
     95    2 O     8      9.461967      1.887669      2.813371   6.0000  15.9994
     96    2 O     8      7.569897      0.006870      7.617754   6.0000  15.9994
     97    2 O     8      3.764401      0.003064      2.002116   6.0000  15.9994
     98    2 O     8     13.235990      1.883407      6.814123   6.0000  15.9994
     99    2 O     8     -0.003048      5.652198      4.405715   6.0000  15.9994
    100    2 O     8      1.883105     11.352763      9.209940   6.0000  15.9994
    101    2 O     8     13.239711      0.006014      5.213596   6.0000  15.9994
    102    2 O     8      3.777395      1.888315      0.401026   6.0000  15.9994
    103    2 O     8      1.891477      5.654455      2.820105   6.0000  15.9994
    104    2 O     8      0.007169     11.358671      7.618776   6.0000  15.9994
    105    2 O     8     11.349989      1.896048      0.415540   6.0000  15.9994
    106    2 O     8      5.703552     -0.018043      5.212005   6.0000  15.9994
    107    2 O     8      5.648734      1.883165      6.807035   6.0000  15.9994
    108    2 O     8     11.354244      0.000652      1.999734   6.0000  15.9994
    109    2 O     8      1.882643      3.771858      9.211972   6.0000  15.9994
    110    2 O     8      0.000540     13.236966      4.395719   6.0000  15.9994
    111    2 O     8      0.001581      3.762121      7.608068   6.0000  15.9994
    112    2 O     8      1.886805     13.237758      2.802604   6.0000  15.9994
    113    2 O     8      3.759862      3.773173      1.988189   6.0000  15.9994
    114    2 O     8     13.232678     13.239410      6.798912   6.0000  15.9994
    115    2 O     8     11.360031      5.649288      4.402386   6.0000  15.9994
    116    2 O     8      5.665616     11.354966      9.214973   6.0000  15.9994
    117    2 O     8     13.236338      3.778675      5.227105   6.0000  15.9994
    118    2 O     8      3.766439     13.236780      0.399871   6.0000  15.9994
    119    2 O     8      5.653936      5.655708      2.807746   6.0000  15.9994
    120    2 O     8     11.354067     11.355820      7.611777   6.0000  15.9994
    121    2 O     8     11.357106     13.234470      0.400943   6.0000  15.9994
    122    2 O     8      5.710710      3.769686      5.207849   6.0000  15.9994
    123    2 O     8      3.782334     11.350616      7.621233   6.0000  15.9994
    124    2 O     8     13.240433      5.650890      2.811383   6.0000  15.9994
    125    2 O     8      5.642375     13.229741      6.820103   6.0000  15.9994
    126    2 O     8     11.359285      3.772897      2.005344   6.0000  15.9994
    127    2 O     8     13.233771     11.358447      9.208303   6.0000  15.9994
    128    2 O     8      3.773246      5.652158      4.418196   6.0000  15.9994
    129    2 O     8      5.648530      5.653870      6.803919   6.0000  15.9994
    130    2 O     8     11.363051     11.352870      2.005424   6.0000  15.9994
    131    2 O     8     13.239981      3.767735      9.205503   6.0000  15.9994
    132    2 O     8      3.765328     13.173439      4.405200   6.0000  15.9994
    133    2 O     8     11.352433      5.674332      0.437797   6.0000  15.9994
    134    2 O     8      5.653291     11.343084      5.257221   6.0000  15.9994
    135    2 O     8      3.779887      3.763418      7.614686   6.0000  15.9994
    136    2 O     8     13.231711     13.239678      2.802650   6.0000  15.9994
    137    2 O     8     13.239627     11.343135      5.207341   6.0000  15.9994
    138    2 O     8      3.770886      5.664495      0.395892   6.0000  15.9994
    139    2 O     8      5.664850     13.237850      2.810011   6.0000  15.9994
    140    2 O     8     11.351917      3.768513      7.613656   6.0000  15.9994
    141    2 O     8      3.829367     11.351833      1.993749   6.0000  15.9994
    142    2 O     8     13.235816      5.681875      6.805218   6.0000  15.9994
    143    2 O     8     11.349437     13.243381      4.405923   6.0000  15.9994
    144    2 O     8      5.689364      3.770133      9.205825   6.0000  15.9994
    145    2 O     8      3.774155      7.568239      1.996227   6.0000  15.9994
    146    2 O     8     13.232815      9.469940      6.809364   6.0000  15.9994
    147    2 O     8      7.576189      5.649534      4.403132   6.0000  15.9994
    148    2 O     8      9.458782     11.351950      9.206978   6.0000  15.9994
    149    2 O     8     13.245117      7.577634      5.214245   6.0000  15.9994
    150    2 O     8      3.750659      9.463508      0.411167   6.0000  15.9994
    151    2 O     8      9.464977      5.653282      2.806803   6.0000  15.9994
    152    2 O     8      7.572298     11.346879      7.610678   6.0000  15.9994
    153    2 O     8     11.348217      9.463211      0.411823   6.0000  15.9994
    154    2 O     8      5.647582      7.532822      5.193710   6.0000  15.9994
    155    2 O     8      5.710070      9.426003      6.774474   6.0000  15.9994
    156    2 O     8     11.350458      7.577297      2.000926   6.0000  15.9994
    157    2 O     8      9.465455      3.764576      9.210519   6.0000  15.9994
    158    2 O     8      7.548030     13.236103      4.403243   6.0000  15.9994
    159    2 O     8      7.579435      3.757959      7.617556   6.0000  15.9994
    160    2 O     8      9.460608     13.245801      2.813561   6.0000  15.9994
    161    2 O     8      7.531258     -0.005002      2.003584   6.0000  15.9994
    162    2 O     8      9.470288      1.882750      6.809516   6.0000  15.9994
    163    2 O     8      0.007510      9.470551      4.388072   6.0000  15.9994
    164    2 O     8      1.878254      7.589074      9.205882   6.0000  15.9994
    165    2 O     8      9.467821     -0.006997      5.208909   6.0000  15.9994
    166    2 O     8      7.597138      1.883763      0.454010   6.0000  15.9994
    167    2 O     8      1.891199      9.472686      2.794751   6.0000  15.9994
    168    2 O     8     -0.001437      7.592466      7.618881   6.0000  15.9994
    169    2 O     8      7.532009      3.778007      2.003948   6.0000  15.9994
    170    2 O     8      9.481427     13.234987      6.800093   6.0000  15.9994
    171    2 O     8     11.359533      9.472951      4.401898   6.0000  15.9994
    172    2 O     8      5.663102      7.587616      9.220334   6.0000  15.9994
    173    2 O     8      9.463697      3.770921      5.211755   6.0000  15.9994
    174    2 O     8      7.529356     13.239877      0.417319   6.0000  15.9994
    175    2 O     8      5.701829      9.470522      2.801689   6.0000  15.9994
    176    2 O     8     11.350665      7.583940      7.625770   6.0000  15.9994
    177    2 O     8      3.776069      7.528942      7.622300   6.0000  15.9994
    178    2 O     8     13.235078      9.477854      2.807161   6.0000  15.9994
    179    2 O     8     13.240489      7.584100      9.209716   6.0000  15.9994
    180    2 O     8      3.793950      9.466985      4.395186   6.0000  15.9994
    181    2 O     8      9.476849      5.665446      6.808569   6.0000  15.9994
    182    2 O     8      7.587559     11.353186      1.994280   6.0000  15.9994
    183    2 O     8      7.587995      5.668493      0.399036   6.0000  15.9994
    184    2 O     8      9.470964     11.350597      5.206125   6.0000  15.9994
    185    2 O     8      7.588092      7.558742      1.998613   6.0000  15.9994
    186    2 O     8      9.463989      9.463465      6.811077   6.0000  15.9994
    187    2 O     8      7.584622      9.468939      4.415107   6.0000  15.9994
    188    2 O     8      9.466095      7.586426      9.212164   6.0000  15.9994
    189    2 O     8      9.469996      7.564974      5.206282   6.0000  15.9994
    190    2 O     8      7.528105      9.471215      0.401380   6.0000  15.9994
    191    2 O     8      9.467430      9.466883      2.809244   6.0000  15.9994
    192    2 O     8      7.566054      7.520979      7.629158   6.0000  15.9994



 SCF PARAMETERS         Density guess:                                   RESTART
                        --------------------------------------------------------
                        max_scf:                                              40
                        max_scf_history:                                       0
                        max_diis:                                              4
                        --------------------------------------------------------
                        eps_scf:                                        1.00E-06
                        eps_scf_history:                                0.00E+00
                        eps_diis:                                       1.00E-01
                        eps_eigval:                                     1.00E-05
                        --------------------------------------------------------
                        level_shift [a.u.]:                             0.000000
                        --------------------------------------------------------
                        Outer loop SCF in use 
                        No variables optimised in outer loop
                        eps_scf                                         1.00E-06
                        max_scf                                               60
                        No outer loop optimization
                        step_size                                       5.00E-01

 PW_GRID| Information for grid number                                          1
 PW_GRID| Grid distributed over                                   128 processors
 PW_GRID| Real space group dimensions                                   128    1
 PW_GRID| the grid is blocked:                                                NO
 PW_GRID| Cutoff [a.u.]                                                    300.0
 PW_GRID| spherical cutoff:                                                   NO
 PW_GRID|   Bounds   1           -112     112                Points:         225
 PW_GRID|   Bounds   2           -112     112                Points:         225
 PW_GRID|   Bounds   3            -72      71                Points:         144
 PW_GRID| Volume element (a.u.^3)  0.2035E-02     Volume (a.u.^3)     14833.7304
 PW_GRID| Grid span                                                    FULLSPACE
 PW_GRID|   Distribution                         Average         Max         Min
 PW_GRID|   G-Vectors                            56953.1       57150       56925
 PW_GRID|   G-Rays                                 253.1         254         253
 PW_GRID|   Real Space Points                    56953.1       64800       32400

 PW_GRID| Information for grid number                                          2
 PW_GRID| Number of the reference grid                                         1
 PW_GRID| Grid distributed over                                   128 processors
 PW_GRID| Real space group dimensions                                   128    1
 PW_GRID| the grid is blocked:                                                NO
 PW_GRID| Cutoff [a.u.]                                                    100.0
 PW_GRID| spherical cutoff:                                                   NO
 PW_GRID|   Bounds   1            -67      67                Points:         135
 PW_GRID|   Bounds   2            -67      67                Points:         135
 PW_GRID|   Bounds   3            -40      40                Points:          81
 PW_GRID| Volume element (a.u.^3)  0.1005E-01     Volume (a.u.^3)     14833.7304
 PW_GRID| Grid span                                                    FULLSPACE
 PW_GRID|   Distribution                         Average         Max         Min
 PW_GRID|   G-Vectors                            11533.0       12150       10800
 PW_GRID|   G-Rays                                  85.4          90          80
 PW_GRID|   Real Space Points                    11533.0       21870       10935

 PW_GRID| Information for grid number                                          3
 PW_GRID| Number of the reference grid                                         1
 PW_GRID| Grid distributed over                                   128 processors
 PW_GRID| Real space group dimensions                                     8   16
 PW_GRID| the grid is blocked:                                                NO
 PW_GRID| Cutoff [a.u.]                                                     33.3
 PW_GRID| spherical cutoff:                                                   NO
 PW_GRID|   Bounds   1            -37      37                Points:          75
 PW_GRID|   Bounds   2            -37      37                Points:          75
 PW_GRID|   Bounds   3            -24      23                Points:          48
 PW_GRID| Volume element (a.u.^3)  0.5494E-01     Volume (a.u.^3)     14833.7304
 PW_GRID| Grid span                                                    FULLSPACE
 PW_GRID|   Distribution                         Average         Max         Min
 PW_GRID|   G-Vectors                             2109.4        2475        1725
 PW_GRID|   G-Rays                                  28.1          33          23
 PW_GRID|   Real Space Points                     2109.4        2400        1728

 PW_GRID| Information for grid number                                          4
 PW_GRID| Number of the reference grid                                         1
 PW_GRID| Grid distributed over                                   128 processors
 PW_GRID| Real space group dimensions                                     8   16
 PW_GRID| the grid is blocked:                                                NO
 PW_GRID| Cutoff [a.u.]                                                     11.1
 PW_GRID| spherical cutoff:                                                   NO
 PW_GRID|   Bounds   1            -22      22                Points:          45
 PW_GRID|   Bounds   2            -22      22                Points:          45
 PW_GRID|   Bounds   3            -13      13                Points:          27
 PW_GRID| Volume element (a.u.^3)  0.2713         Volume (a.u.^3)     14833.7304
 PW_GRID| Grid span                                                    FULLSPACE
 PW_GRID|   Distribution                         Average         Max         Min
 PW_GRID|   G-Vectors                              427.1         585         270
 PW_GRID|   G-Rays                                   9.5          13           6
 PW_GRID|   Real Space Points                      427.1         486         270

 POISSON| Solver                                                        PERIODIC
 POISSON| Periodicity                                                        XYZ

 RS_GRID| Information for grid number                                          1
 RS_GRID|   Bounds   1           -112     112                Points:         225
 RS_GRID|   Bounds   2           -112     112                Points:         225
 RS_GRID|   Bounds   3            -72      71                Points:         144
 RS_GRID| Real space distribution over                                  8 groups
 RS_GRID| Real space distribution along direction                              1
 RS_GRID| Border size                                                         26
 RS_GRID| Real space distribution over                                 16 groups
 RS_GRID| Real space distribution along direction                              2
 RS_GRID| Border size                                                         26
 RS_GRID|   Distribution                         Average         Max         Min
 RS_GRID|   Planes                                  80.1          81          80
 RS_GRID|   Distribution                         Average         Max         Min
 RS_GRID|   Planes                                  66.1          67          66

 RS_GRID| Information for grid number                                          2
 RS_GRID|   Bounds   1            -67      67                Points:         135
 RS_GRID|   Bounds   2            -67      67                Points:         135
 RS_GRID|   Bounds   3            -40      40                Points:          81
 RS_GRID| Real space distribution over                                  8 groups
 RS_GRID| Real space distribution along direction                              1
 RS_GRID| Border size                                                         24
 RS_GRID| Real space distribution over                                 16 groups
 RS_GRID| Real space distribution along direction                              2
 RS_GRID| Border size                                                         24
 RS_GRID|   Distribution                         Average         Max         Min
 RS_GRID|   Planes                                  64.9          65          64
 RS_GRID|   Distribution                         Average         Max         Min
 RS_GRID|   Planes                                  56.4          57          56

 RS_GRID| Information for grid number                                          3
 RS_GRID|   Bounds   1            -37      37                Points:          75
 RS_GRID|   Bounds   2            -37      37                Points:          75
 RS_GRID|   Bounds   3            -24      23                Points:          48
 RS_GRID| Real space fully replicated
 RS_GRID| Group size                                                           1

 RS_GRID| Information for grid number                                          4
 RS_GRID|   Bounds   1            -22      22                Points:          45
 RS_GRID|   Bounds   2            -22      22                Points:          45
 RS_GRID|   Bounds   3            -13      13                Points:          27
 RS_GRID| Real space fully replicated
 RS_GRID| Group size                                                           1

 Spin 1

 Number of electrons:                                                        768
 Number of occupied orbitals:                                                768
 Number of molecular orbitals:                                               768

 Spin 2

 Number of electrons:                                                        768
 Number of occupied orbitals:                                                768
 Number of molecular orbitals:                                               768

 Number of orbital functions:                                               3328
 Number of independent orbital functions:                                   3328

 Extrapolation method: initial_guess

 *** WARNING in qs_initial_guess.F:306 :: User requested to restart the    ***
 *** wavefunction from the file named: tio2-RESTART.wfn. This file does    ***
 *** not exist. Please check the existence of the file or change properly  ***
 *** the value of the keyword WFN_RESTART_FILE_NAME. Calculation continues ***
 *** using ATOMIC GUESS.                                                   ***


 Atomic guess: The first density matrix is obtained in terms of atomic orbitals
               and electronic configurations assigned to each atomic kind

 Guess for atomic kind: Ti

 Electronic structure
    Total number of core electrons                                         10.00
    Total number of valence electrons                                      12.00
    Total number of electrons                                              22.00
    Multiplicity                                                   not specified
    S   [  2.00  2.00] 2.00  2.00
    P   [  6.00] 6.00
    D      2.00


 *******************************************************************************
                  Iteration          Convergence                     Energy [au]
 *******************************************************************************
                          1         2.59099                     -56.573945749309
                          2        0.737518                     -57.461623245624
                          3        0.123244E-01                 -57.676656834797
                          4        0.338536E-02                 -57.676690535970
                          5        0.252157E-03                 -57.676697146183
                          6        0.162704E-05                 -57.676697160103
                          7        0.846593E-06                 -57.676697160104

 Energy components [Hartree]           Total Energy ::          -57.676697160104
                                        Band Energy ::          -13.440549799540
                                     Kinetic Energy ::           25.008468428381
                                   Potential Energy ::          -82.685165588485
                                      Virial (-V/T) ::            3.306286661467
                                        Core Energy ::          -97.155838374470
                                          XC Energy ::           -6.919409696495
                                     Coulomb Energy ::           46.398550910862
                       Total Pseudopotential Energy ::         -122.259340742080
                       Local Pseudopotential Energy ::         -118.928992669456
                    Nonlocal Pseudopotential Energy ::           -3.330348072625
                                        Confinement ::            0.950339392289

 Orbital energies  State     L     Occupation   Energy[a.u.]          Energy[eV]

                       1     0          2.000      -2.312566          -62.928123
                       2     0          2.000      -0.123060           -3.348633

                       1     1          6.000      -1.385567          -37.703193

                       1     2          2.000      -0.127948           -3.481643


 Total Electron Density at R=0:                                         0.004726

 Guess for atomic kind: O

 Electronic structure
    Total number of core electrons                                          2.00
    Total number of valence electrons                                       6.00
    Total number of electrons                                               8.00
    Multiplicity                                                   not specified
    S   [  2.00] 2.00
    P      4.00


 *******************************************************************************
                  Iteration          Convergence                     Energy [au]
 *******************************************************************************
                          1        0.702811                     -15.577904332270
                          2        0.612408                     -15.588447180504
                          3        0.955344E-02                 -15.655871208406
                          4        0.223754E-02                 -15.655885053552
                          5        0.157183E-02                 -15.655885461027
                          6        0.124953E-02                 -15.655885607150
                          7        0.312011E-06                 -15.655885858066

 Energy components [Hartree]           Total Energy ::          -15.655885858066
                                        Band Energy ::           -2.983128125584
                                     Kinetic Energy ::           11.754765134683
                                   Potential Energy ::          -27.410650992749
                                      Virial (-V/T) ::            2.331875684345
                                        Core Energy ::          -26.153522949072
                                          XC Energy ::           -3.157392363346
                                     Coulomb Energy ::           13.655029454351
                       Total Pseudopotential Energy ::          -37.943026860963
                       Local Pseudopotential Energy ::          -39.220419683052
                    Nonlocal Pseudopotential Energy ::            1.277392822089
                                        Confinement ::            0.347387772086

 Orbital energies  State     L     Occupation   Energy[a.u.]          Energy[eV]

                       1     0          2.000      -0.861522          -23.443215

                       1     1          4.000      -0.315021           -8.572154


 Total Electron Density at R=0:                                         0.000093

 Spin 1
 Re-scaling the density matrix to get the right number of electrons for spin 1
                  # Electrons              Trace(P)               Scaling factor
                          768               768.001                        1.000

 Spin 2
 Re-scaling the density matrix to get the right number of electrons for spin 2
                  # Electrons              Trace(P)               Scaling factor
                          768               768.001                        1.000


 SCF WAVEFUNCTION OPTIMIZATION

  ----------------------------------- OT ---------------------------------------
  Minimizer      : DIIS                : direct inversion
                                         in the iterative subspace
                                         using   7 DIIS vectors
                                         safer DIIS on
  Preconditioner : FULL_SINGLE_INVERSE : inversion of 
                                         H + eS - 2*(Sc)(c^T*H*c+const)(Sc)^T
  Precond_solver : DEFAULT
  stepsize       :    0.08000000                  energy_gap     :    0.08000000
  eps_taylor     :   0.10000E-15                  max_taylor     :             4
  ----------------------------------- OT ---------------------------------------

  Step     Update method      Time    Convergence         Total energy    Change
  ------------------------------------------------------------------------------
     1 OT DIIS     0.80E-01    2.1     0.00992696     -5646.4606185725 -5.65E+03
     2 OT DIIS     0.80E-01    1.5     0.00721384     -5680.6666824932 -3.42E+01
     3 OT DIIS     0.80E-01    1.5     0.00465494     -5712.7050574632 -3.20E+01
     4 OT DIIS     0.80E-01    1.5     0.00366967     -5723.1137912090 -1.04E+01
     5 OT DIIS     0.80E-01    1.5     0.00266624     -5734.4486712881 -1.13E+01
     6 OT DIIS     0.80E-01    1.5     0.00219138     -5741.2257619325 -6.78E+00
     7 OT DIIS     0.80E-01    1.5     0.00184901     -5747.0952773514 -5.87E+00
     8 OT DIIS     0.80E-01    1.5     0.00148473     -5752.7763941622 -5.68E+00
     9 OT DIIS     0.80E-01    1.5     0.00126656     -5756.4903032335 -3.71E+00
    10 OT DIIS     0.80E-01    1.5     0.00098934     -5759.6631547945 -3.17E+00
    11 OT DIIS     0.80E-01    1.5     0.00090180     -5760.4791079177 -8.16E-01
    12 OT DIIS     0.80E-01    1.5     0.00073428     -5762.2131572234 -1.73E+00
    13 OT DIIS     0.80E-01    1.5     0.00059718     -5763.5745866886 -1.36E+00
    14 OT DIIS     0.80E-01    1.5     0.00049670     -5764.4822916001 -9.08E-01
    15 OT DIIS     0.80E-01    1.4     0.00044509     -5764.9511717961 -4.69E-01
    16 OT DIIS     0.80E-01    1.5     0.00037623     -5765.4745017667 -5.23E-01
    17 OT DIIS     0.80E-01    1.5     0.00034804     -5765.7110649505 -2.37E-01
    18 OT DIIS     0.80E-01    1.5     0.00029807     -5766.0472449824 -3.36E-01
    19 OT DIIS     0.80E-01    1.5     0.00026269     -5766.2396604749 -1.92E-01
    20 OT DIIS     0.80E-01    1.5     0.00024529     -5766.3452163735 -1.06E-01
    21 OT DIIS     0.80E-01    1.5     0.00021103     -5766.5442816510 -1.99E-01
    22 OT DIIS     0.80E-01    1.5     0.00018430     -5766.6879071013 -1.44E-01
    23 OT DIIS     0.80E-01    1.5     0.00017897     -5766.7598831716 -7.20E-02
    24 OT DIIS     0.80E-01    1.5     0.00016674     -5766.7991882870 -3.93E-02
    25 OT DIIS     0.80E-01    1.5     0.00015003     -5766.8875617046 -8.84E-02
    26 OT DIIS     0.80E-01    1.4     0.00013354     -5766.9528246250 -6.53E-02
    27 OT DIIS     0.80E-01    1.4     0.00013646     -5766.9925812003 -3.98E-02
    28 OT DIIS     0.80E-01    1.5     0.00013006     -5767.0096605068 -1.71E-02
    29 OT DIIS     0.80E-01    1.4     0.00012490     -5767.0306626674 -2.10E-02
    30 OT DIIS     0.80E-01    1.5     0.00012188     -5767.0428176209 -1.22E-02
    31 OT DIIS     0.80E-01    1.5     0.00011930     -5767.0621125100 -1.93E-02
    32 OT DIIS     0.80E-01    1.5     0.00011399     -5767.1077537852 -4.56E-02
    33 OT DIIS     0.80E-01    1.5     0.00010856     -5767.1500394401 -4.23E-02
    34 OT DIIS     0.80E-01    1.4     0.00010071     -5767.2042485721 -5.42E-02
    35 OT SD       0.80E-01    1.5     0.00010603     -5767.2103623648 -6.11E-03
    36 OT DIIS     0.80E-01    1.5     0.00010332     -5767.2148893007 -4.53E-03
    37 OT DIIS     0.80E-01    1.5     0.00010130     -5767.2260947460 -1.12E-02
    38 OT DIIS     0.80E-01    1.5     0.00009957     -5767.2295318187 -3.44E-03
    39 OT DIIS     0.80E-01    1.6     0.00009600     -5767.2439049953 -1.44E-02
    40 OT DIIS     0.80E-01    1.4     0.00009683     -5767.2529191745 -9.01E-03

  Leaving inner SCF loop after reaching    40 steps.


  Electronic density on regular grids:      -1535.9999999999        0.0000000001
  Core density on regular grids:             1535.9999999995       -0.0000000005
  Total charge density on r-space grids:       -0.0000000004
  Total charge density g-space grids:          -0.0000000004

  Overlap energy of the core charge distribution:               0.00000000000380
  Self energy of the core charge distribution:             -12156.89556134359555
  Core Hamiltonian energy:                                   3317.15446382956861
  Hartree energy:                                            3985.22410010883777
  Exchange-correlation energy:                               -931.88305028110449

  DFT+U energy:                                                19.14712851182525

  Total energy:                                             -5767.25291917446430

  outer SCF iter =    1 RMS gradient =   0.97E-04 energy =      -5767.2529191745

  ----------------------------------- OT ---------------------------------------
  Minimizer      : DIIS                : direct inversion
                                         in the iterative subspace
                                         using   7 DIIS vectors
                                         safer DIIS on
  Preconditioner : FULL_SINGLE_INVERSE : inversion of 
                                         H + eS - 2*(Sc)(c^T*H*c+const)(Sc)^T
  Precond_solver : DEFAULT
  stepsize       :    0.08000000                  energy_gap     :    0.08000000
  eps_taylor     :   0.10000E-15                  max_taylor     :             4
  ----------------------------------- OT ---------------------------------------

[...]
 flops    13 x    13 x    32          99780974592       0.0%    100.0%      0.0%     
 flops    26 x    13 x    32         102072582144       0.0%    100.0%      0.0%     
 flops    13 x    26 x    32         102072582144       0.0%    100.0%      0.0%     
 flops    26 x    26 x    32         103667466240       0.0%    100.0%      0.0%     
 flops    96 x    32 x    32         120795955200       0.0%    100.0%      0.0%     
 flops    13 x    13 x    64         199561949184       0.0%    100.0%      0.0%     
 flops    26 x    13 x    64         204145164288       0.0%    100.0%      0.0%     
 flops    13 x    26 x    64         204145164288       0.0%    100.0%      0.0%     
 flops    26 x    26 x    64         207334932480       0.0%    100.0%      0.0%     
 flops    96 x    64 x    32         241591910400       0.0%    100.0%      0.0%     
 flops    96 x    32 x    64         241591910400       0.0%    100.0%      0.0%     
 flops   416 x    32 x    32         297493594112       0.0%    100.0%      0.0%     
 flops    96 x    64 x    64         483183820800       0.0%    100.0%      0.0%     
 flops   416 x    64 x    32         594987188224       0.0%    100.0%      0.0%     
 flops   416 x    32 x    64         594987188224       0.0%    100.0%      0.0%     
 flops    96 x    32 x   208         726367469568       0.0%    100.0%      0.0%     
 flops   416 x    32 x   208         825086705664       0.0%    100.0%      0.0%     
 flops   416 x    64 x    64        1189974376448       0.0%    100.0%      0.0%     
 flops    13 x    32 x    13        1248552834048       0.0%    100.0%      0.0%     
 flops    26 x    32 x    26        1288666349568       0.0%    100.0%      0.0%     
 flops    26 x    32 x    13        1288666349568       0.0%    100.0%      0.0%     
 flops    13 x    32 x    26        1288666349568       0.0%    100.0%      0.0%     
 flops    96 x    64 x   208        1453879984128       0.0%    100.0%      0.0%     
 flops   416 x    64 x   208        1655844110336       0.0%    100.0%      0.0%     
 flops inhomo. stacks                     2770272     100.0%      0.0%      0.0%
 flops total                        14.801752E+12       0.0%    100.0%      0.0%
 flops max/rank                    152.831007E+09       0.0%    100.0%      0.0%
 matmuls inhomo. stacks                      4016     100.0%      0.0%      0.0%
 matmuls total                          322553172       0.0%    100.0%      0.0%
 number of processed stacks               9162640       0.0%    100.0%      0.0%
 average stack size                                     1.0      35.2       0.0
 marketing flops                    16.107111E+12
 -------------------------------------------------------------------------------
 # multiplications                           5003
 max memory usage/rank             348.340224E+06
 # max total images/rank                        2
 # max 3D layers                                1
 # MPI messages exchanged                18571136
 MPI messages size (bytes):
  total size                         1.849437E+12
  min size                           0.000000E+00
  max size                         692.224000E+03
  average size                      99.586641E+03
 MPI breakdown and total messages size (bytes):
             size <=      128             5970912                   144608
       128 < size <=     8192             1054400               7333531296
      8192 < size <=    32768             3758048              85442912464
     32768 < size <=   131072             4160896             318008651776
    131072 < size <=  4194304             3626880            1438678191600
   4194304 < size <= 16777216                   0                        0
  16777216 < size                               0                        0
 -------------------------------------------------------------------------------

 *** WARNING in dbcsr_mm.F:301 :: Using a non-square number of MPI ranks ***
 *** might lead to poor performance. Used ranks: 128 Suggested: 121 256  ***

 -------------------------------------------------------------------------------
 -                                                                             -
 -                      DBCSR MESSAGE PASSING PERFORMANCE                      -
 -                                                                             -
 -------------------------------------------------------------------------------
 ROUTINE             CALLS      AVE VOLUME [Bytes]
 MP_Bcast               50                     12.
 MP_Allreduce        26144                     25.
 MP_Alltoall         18027                  29299.
 MP_ISend           315148                  49378.
 MP_IRecv           314608                  48906.
 -------------------------------------------------------------------------------

 -------------------------------------------------------------------------------
 -                                                                             -
 -                                DBM STATISTICS                               -
 -                                                                             -
 -------------------------------------------------------------------------------
    M  x    N  x    K                                          COUNT     PERCENT
 -------------------------------------------------------------------------------

 -------------------------------------------------------------------------------
 -                                                                             -
 -                                GRID STATISTICS                              -
 -                                                                             -
 -------------------------------------------------------------------------------
 LP    KERNEL             BACKEND                              COUNT     PERCENT
 5     collocate ortho    CPU                               21969920      25.42%
 5     integrate ortho    CPU                               21656064      25.05%
 6     collocate ortho    CPU                               11210080      12.97%
 6     integrate ortho    CPU                               11049936      12.78%
 4     collocate ortho    CPU                               10038980      11.61%
 4     integrate ortho    CPU                                9895566      11.45%
 0     integrate general  CPU                                 393216       0.45%
 0     collocate general  CPU                                 221184       0.26%
 2     collocate ortho    CPU                                   2560       0.00%
 3     collocate ortho    CPU                                   1536       0.00%
 -------------------------------------------------------------------------------

 MEMORY| Estimated peak process memory [MiB]                                 333

 -------------------------------------------------------------------------------
 ----                             MULTIGRID INFO                            ----
 -------------------------------------------------------------------------------
 count for grid        1:        1287235          cutoff [a.u.]          300.00
 count for grid        2:         981134          cutoff [a.u.]          100.00
 count for grid        3:         793942          cutoff [a.u.]           33.33
 count for grid        4:         536779          cutoff [a.u.]           11.11
 total gridlevel count  :        3599090

 -------------------------------------------------------------------------------
 -                                                                             -
 -                         MESSAGE PASSING PERFORMANCE                         -
 -                                                                             -
 -------------------------------------------------------------------------------

 ROUTINE             CALLS      AVE VOLUME [Bytes]
 MP_Group                4
 MP_Bcast             8691                  18446.
 MP_Allreduce        23145                    449.
 MP_Sync               836
 MP_Alltoall          2884                1903799.
 MP_SendRecv         36576                  11544.
 MP_ISendRecv        35052                  11544.
 MP_Wait             52076
 MP_comm_split         268
 MP_ISend            30856                  77941.
 MP_IRecv            30796                  78089.
 MP_Write_All            6                 355816.
 -------------------------------------------------------------------------------


 -------------------------------------------------------------------------------
 -                                                                             -
 -                           R E F E R E N C E S                               -
 -                                                                             -
 -------------------------------------------------------------------------------
 
 CP2K version 2024.3, the CP2K developers group (2024).
 CP2K is freely available from https://www.cp2k.org/ .
 
 T. D. Kuehne, M. Iannuzzi, M. Del Ben, V. V. Rybkin, P. Seewald, F. Stein, T. 
 Laino, R. Z. Khaliullin, O. Schuett, F. Schiffmann, D. Golze, J. Wilhelm, S. 
 Chulkov, M. H. Bani-Hashemian, V. Weber, U. Borstnik, M. Taillefumier, A. S. 
 Jakobovits, A. Lazzaro, H. Pabst, T. Mueller, R. Schade, M. Guidon, S. 
 Andermatt, N. Holmberg, G. K. Schenter, A. Hehn, A. Bussy, F. Belleflamme, G. 
 Tabacchi, A. Gloess, M. Lass, I. Bethune, C. J. Mundy, C. Plessl, M. Watkins, 
 J. VandeVondele, M. Krack, J. Hutter.
 J. Chem. Phys. 152, 194103 (2020).
 CP2K: An electronic structure and molecular dynamics software package - 
 Quickstep: Efficient and accurate electronic structure calculations.
 https://doi.org/10.1063/5.0007045

 O. Schuett, P. Messmer, J. Hutter, J. VandeVondele.
 Electronic Structure Calculations on Graphics Processing Units, 173-190 (2016).
 GPU-Accelerated Sparse Matrix-Matrix Multiplication for Linear Scaling Density 
 Functional Theory.
 https://doi.org/10.1002/9781118670712.ch8

 A. Heinecke, G. Henry, M. Hutchinson, H. Pabst.
 Proceedings of Intl. Supercomputing Conference, 981-991 (2016).
 LIBXSMM: Accelerating Small Matrix Multiplications by Runtime Code Generation.
 https://doi.org/10.1109/SC.2016.83

 J. Hutter, M. Iannuzzi, F. Schiffmann, J. VandeVondele.
 WIREs Comput Mol Sci. 4, 15-25 (2014).
 CP2K: atomistic simulations of condensed matter systems.
 https://doi.org/10.1002/wcms.1159

 U. Borstnik, J. VandeVondele, V. Weber, J. Hutter.
 Parallel Comput. 40, 47-58 (2014).
 Sparse matrix multiplication: The distributed block-compressed sparse row 
 library.
 https://doi.org/10.1016/j.parco.2014.03.012

 A. Marek, V. Blum, R. Johanni, V. Havu, B. Lang, T. Auckenthaler, A. Heinecke, 
 H. Bungartz, H. Lederer.
 J. Phys. Condens. Matter 26, 213201 (2014).
 The ELPA library: scalable parallel eigenvalue solutions for electronic 
 structure theory and computational science.
 https://doi.org/10.1088/0953-8984/26/21/213201

 J. VandeVondele, J. Hutter.
 J. Chem. Phys. 127, 114105 (2007).
 Gaussian basis sets for accurate calculations on molecular systems in gas and 
 condensed phases.
 https://doi.org/10.1063/1.2770708

 J. VandeVondele, M. Krack, F. Mohamed, M. Parrinello, T. Chassaing, J. Hutter.
 Comput. Phys. Commun. 167, 103-128 (2005).
 QUICKSTEP: Fast and accurate density functional calculations using a mixed 
 Gaussian and plane waves approach.
 https://doi.org/10.1016/j.cpc.2004.12.014

 M. Krack.
 Theor. Chem. Acc. 114, 145-152 (2005).
 Pseudopotentials for H to Kr optimized for gradient-corrected 
 exchange-correlation functionals.
 https://doi.org/10.1007/s00214-005-0655-y

 M. Frigo, S. G. Johnson.
 Proc. IEEE 93, 216-231 (2005).
 The design and implementation of FFTW3.
 https://doi.org/10.1109/JPROC.2004.840301

 J. VandeVondele, J. Hutter.
 J. Chem. Phys. 118, 4365-4369 (2003).
 An efficient orbital transformation method for electronic structure 
 calculations.
 https://doi.org/10.1063/1.1543154

 C. Hartwigsen, S. Goedecker, J. Hutter.
 Phys. Rev. B 58, 3641-3662 (1998).
 Relativistic separable dual-space Gaussian pseudopotentials from H to Rn.
 https://doi.org/10.1103/PhysRevB.58.3641

 S. L. Dudarev, G. A. Botton, S. Y. Savrasov, C. J. Humphreys, A. P. Sutton.
 Phys. Rev. B 57, 1505-1509 (1998).
 Electron-energy-loss spectra and the structural stability of nickel oxide: An 
 LSDA+U study.
 https://doi.org/10.1103/PhysRevB.57.1505

 G. Lippert, J. Hutter, M. Parrinello.
 Mol. Phys. 92, 477-487 (1997).
 A hybrid Gaussian and plane wave density functional scheme.
 https://doi.org/10.1080/002689797170220

 S. L. Dudarev, D. N. Manh, A. P. Sutton.
 Philos. Mag. B 75, 613-628 (1997).
 Effect of Mott-Hubbard correlations on the electronic structure and structural 
 stability of uranium dioxide.
 https://doi.org/10.1080/13642819708202343

 S. Goedecker, M. Teter, J. Hutter.
 Phys. Rev. B 54, 1703-1710 (1996).
 Separable dual-space Gaussian pseudopotentials.
 https://doi.org/10.1103/PhysRevB.54.1703

 J. P. Perdew, K. Burke, M. Ernzerhof.
 Phys. Rev. Lett. 77, 3865-3868 (1996).
 Generalized gradient approximation made simple.
 https://doi.org/10.1103/PhysRevLett.77.3865


 -------------------------------------------------------------------------------
 -                                                                             -
 -                                T I M I N G                                  -
 -                                                                             -
 -------------------------------------------------------------------------------
 SUBROUTINE                       CALLS  ASD         SELF TIME        TOTAL TIME
                                MAXIMUM       AVERAGE  MAXIMUM  AVERAGE  MAXIMUM
 CP2K                                 1  1.0    0.077    0.089  114.292  114.297
 qs_energies                          1  2.0    0.006    0.010  113.692  113.697
 scf_env_do_scf                       1  3.0    0.005    0.008  102.715  102.717
 scf_env_do_scf_inner_loop           69  4.0    0.007    0.022   99.553   99.615
 qs_ks_update_qs_env                 71  5.0    0.001    0.002   48.910   49.036
 rebuild_ks_matrix                   69  6.0    0.002    0.003   48.813   48.938
 qs_ks_build_kohn_sham_matrix        69  7.0    0.018    0.022   48.810   48.936
 sum_up_and_integrate                69  8.0    0.005    0.007   30.693   30.706
 integrate_v_rspace                 138  9.0    0.006    0.008   30.608   30.658
 qs_rho_update_rho_low               70  5.0    0.001    0.002   28.772   28.782
 calculate_rho_elec                 140  6.0    0.052    0.060   28.771   28.781
 dbcsr_multiply_generic            5003  9.2    0.184    0.192   23.873   24.484
 qs_scf_new_mos                      69  5.0    0.000    0.001   23.618   23.795
 qs_scf_loop_do_ot                   69  6.0    0.001    0.001   23.617   23.794
 grid_integrate_task_list           138 10.0   22.055   22.951   22.055   22.951
 ot_scf_mini                         69  7.0    0.003    0.004   22.106   22.234
 grid_collocate_task_list           140  7.0   20.638   21.291   20.638   21.291
 multiply_cannon                   5003 10.2    0.787    0.836   15.909   18.325
 fft_wrap_pw1pw2                   2308 10.3    0.046    0.056   15.210   17.150
 multiply_cannon_loop              5003 11.2    0.355    0.374   13.778   16.103
 fft_wrap_pw1pw2_300               1462 11.8    0.574    0.625   14.122   16.075
 qs_vxc_create                       69  8.0    0.002    0.004   14.498   14.613
 xc_vxc_pw_create                    69  9.0    0.265    0.337   14.495   14.611
 fft3d_ps                          2308 12.3    4.549    5.025   11.973   14.196
 ot_mini                            207  6.7    0.006    0.008   12.338   12.498
 xc_pw_derive                       828 11.0    0.007    0.008    9.790   11.495
 multiply_cannon_multrec          80048 12.2    6.492   10.255    6.509   10.272
 mp_waitall_1                    598788 13.3    6.870    9.910    6.870    9.910
 mp_alltoall_z22v                  2308 14.3    6.160    9.592    6.160    9.592
 qs_ot_get_p                        284  7.0    0.004    0.004    9.259    9.557
 scf_post_calculation_gpw             1  3.0    0.004    0.007    9.345    9.349
 qs_ot_get_derivative               208  8.3    0.001    0.002    8.923    9.022
 multiply_cannon_metrocomm3       80048 12.2    0.194    0.200    4.762    8.449
 density_rs2pw                      140  7.0    0.011    0.012    7.370    8.054
 xc_rho_set_and_dset_create          69 10.0    0.237    0.378    7.519    7.945
 xc_pw_divergence                   138 10.0    0.003    0.004    6.482    7.825
 qs_ot_p2m_diag                     264  8.0    0.058    0.079    7.092    7.137
 potential_pw2rs                    138 10.0    0.011    0.013    7.011    7.063
 qs_ot_get_derivative_diag          192  9.3    0.004    0.005    5.928    6.024
 cp_dbcsr_syevd                     264  9.0    0.079    0.088    6.012    6.017
 yz_to_x                            841 13.4    0.356    0.504    3.508    5.755
 cp_fm_diag_elpa                    134 10.9    0.001    0.003    5.603    5.617
 cp_fm_redistribute_end             268 10.9    2.825    5.567    2.844    5.579
 cp_fm_diag_elpa_base               134 11.9    2.677    5.364    2.690    5.402
 make_lumo_gpw                        1  4.0    0.001    0.002    5.315    5.316
 ot_eigensolver                       2  5.0    0.003    0.004    5.295    5.297
 transfer_pw2rs                     554 11.0    0.008    0.009    5.157    5.178
 transfer_rs2pw                     578  7.9    0.010    0.014    4.428    5.136
 make_m2s                         10006 10.2    0.137    0.150    4.870    5.133
 mp_waitany                       13624 11.4    3.651    4.922    3.651    4.922
 x_to_yz                            903 13.7    0.593    0.759    3.561    4.484
 make_images                      10006 11.2    0.268    0.290    3.936    4.164
 transfer_rs2pw_300                 146  8.9    1.119    1.486    2.823    3.788
 transfer_pw2rs_300                 140 11.9    1.755    1.859    3.569    3.745
 mp_sum_l                         24254 10.2    2.119    3.731    2.119    3.731
 init_scf_loop                        2  4.0    0.003    0.005    3.121    3.126
 write_available_results              1  4.0    0.002    0.004    3.099    3.103
 write_mo_free_results                1  5.0    0.137    0.142    3.059    3.062
 apply_preconditioner_dbcsr         216  9.3    0.001    0.001    2.708    3.045
 apply_single                       216 10.3    0.001    0.001    2.707    3.044
 mp_alltoall_d11v                  4013 11.6    2.250    2.932    2.250    2.932
 ot_diis_step                        69  9.0    0.014    0.015    2.802    2.804
 multiply_cannon_metrocomm4       75045 12.2    0.192    0.198    0.908    2.591
 xc_functional_eval                  69 11.0    0.001    0.002    2.213    2.544
 pbe_lsd_eval                        69 12.0    2.212    2.543    2.212    2.543
 mp_irecv_dv                     166739 13.2    0.810    2.359    0.810    2.359
 -------------------------------------------------------------------------------

 The number of warnings for this run is : 3
 
 -------------------------------------------------------------------------------
  **** **** ******  **  PROGRAM ENDED AT                 2025-06-17 07:53:57.187
 ***** ** ***  *** **   PROGRAM RAN ON                                 nid005841
 **    ****   ******    PROGRAM RAN BY                                    cahart
 ***** **    ** ** **   PROGRAM PROCESS ID                                 92972
  **** **  *******  **  PROGRAM STOPPED IN /mnt/lustre/a2fs-work2/work/e05/e05/c
                                           ahart/postdoc2/work/group/tio2/anatas
                                           e/cell-441/geo-opt/mp-390/neutral-fro
                                           m-hole/pbe-u-o/u-8.0
