     192
 i =        1, E =     -5780.7265808928
Ti        -0.0631375264        0.0950191668        0.0651315891
Ti         1.8664926456        1.9234443789        4.8988017660
Ti         0.0468441953        2.0298333121        2.5302150082
Ti         1.8638541027       -0.0462493255        7.1730932105
Ti        -0.0333089654        3.8287420699       -0.0534020401
Ti         1.9495880971       13.1917461815        4.8335117514
Ti        11.2882476538        1.9807610688        2.4506427264
Ti         5.6071022878       -0.0900356941        7.2228776511
Ti         1.9050695167        3.8183122381        7.2354682083
Ti         0.0256031016       13.3463218911        2.4745874143
Ti         5.6779322113        1.8350036482        4.8273699055
Ti        11.3027753454        0.1153100743       -0.0445522154
Ti         3.6771725782        0.0966167056        0.0490371752
Ti        13.1229481849        1.7701978662        4.7047907470
Ti        13.2662145882       -0.0451594937        7.1546577452
Ti         3.7510008297        1.8029827502        2.5213055476
Ti         1.9713856527        5.6386002336        4.8510572220
Ti         0.0029790730       11.5734264548        0.0023386244
Ti        -0.0220459480        5.7235157156        2.4873938436
Ti         1.8997330184       11.3186894849        7.3608823484
Ti         0.0693722269        7.4961158162        0.0512691745
Ti         2.0400031363        9.5182247067        4.9043220713
Ti         7.4989891231        1.9565538409        2.3515413662
Ti         9.4685934904       -0.1309123646        7.2263938452
Ti         1.9468583806        7.5784679918        7.1610019629
Ti         0.1326713628        9.5812374076        2.4809155585
Ti         9.3286192595        1.8085947977        4.7674797817
Ti         7.4646504879       -0.0616475890       -0.0792153269
Ti         3.7296448966        3.7830470829       -0.0062949882
Ti        13.2365738933       13.1253167052        4.7428724180
Ti        11.3750052452        5.7265407849        2.3764062456
Ti         5.6782440471       11.3259512212        7.1525886068
Ti        13.1720797507        3.6799004352        7.2409960245
Ti         3.7728434477       13.1625652770        2.4441466771
Ti         5.6791867913        5.7201077049        4.8436987210
Ti        11.2229348805       11.3895190766        0.1074535264
Ti        11.2853211139       13.3346986678        2.3542939264
Ti         5.6579737820        3.7267290907        7.1293294454
Ti         3.8826981710       11.4219015564        0.0417460319
Ti        13.2870933028        5.5840369293        4.9019001647
Ti         5.7972001958       13.2082963116        4.8099896040
Ti        11.2686026107        3.7905526207       -0.0768796636
Ti        13.0945112458       11.3813204346        7.2644912555
Ti         3.7921429992        5.6102314320        2.3933690739
Ti         3.7988886340        7.5568313289        0.0457142585
Ti        13.3022488354        9.4207324366        4.8375042779
Ti         7.5208437543        5.6768546808        2.3895858161
Ti         9.4258367332       11.1429870528        7.1735536759
Ti        13.3041844558        7.5412614901        7.2326795813
Ti         3.8843679004        9.4439106494        2.3383668594
Ti         9.5207036455        5.5605275523        4.7066686240
Ti         7.5320848504       11.3436782008        0.0694148742
Ti        11.4042030414        9.4486495471        2.4127059968
Ti         5.6598355538        7.6062265207        7.2005203090
Ti         5.7785898940        9.4233720708        4.7428499602
Ti        11.3223823032        7.5737232204        0.0065237352
Ti         9.4273643469        3.6452907691        7.1667503163
Ti         7.5399692583       13.3077902280        2.4068708288
Ti         7.4639320813        3.7985987733       -0.0645663045
Ti         9.5115298921       13.2424718923        4.7811190074
Ti         7.5987674330        7.5340387982       -0.0567081311
Ti         9.5296359871        9.3932889803        4.7598079929
Ti         7.6387672553        9.4176381340        2.3232891013
Ti         9.5151124755        7.3582678018        7.1444682269
O         0.0549300836        0.0820095669        2.0908352790
O         1.6685767801        1.9362669684        6.7374799972
O        -0.0705927371        2.0001877734        4.4133606039
O         1.7986074049        0.1480755114        9.2359441505
O         1.8085038514       -0.0176074475        5.2615024385
O        -0.1503305353        2.0056951461        0.4929377867
O         1.8666416968        2.1758445674        2.8335175726
O        -0.0709529810       -0.0500432464        7.6234883719
O        -0.0297110722        3.9096438657        2.0824231716
O         1.9943630280       13.2707778870        6.8230136423
O        11.2877178779        1.8276918291        4.3143050994
O         5.6323452616       -0.0206875324        9.2655011723
O         2.1112308881        3.7576601326        5.1798393269
O         0.0526811965       13.3722865179        0.4386910352
O         5.6318612073        1.8531809928        2.8374811183
O        11.2846693590        0.0671966554        7.5639780438
O         3.7114536126        0.1172881043        7.6914820615
O        13.1895694636        1.8729984425        2.8319001192
O        13.1743594544       -0.1053838372        9.2165012430
O         3.7106679288        1.6502460128        4.3767094397
O         1.9081626767        5.6228643104        6.7412145612
O         0.0581904872       11.4532807487        1.9163635612
O         0.0843645589        5.7183688048        0.4678873405
O         1.9143729206       11.3166677022        5.2366175327
O         0.1228701174        7.7243806668        1.9500032345
O         2.1580350291        9.4635224711        6.7781213875
O         7.4568577785        1.8638045147        4.3601992188
O         9.4162327856        0.0360600877        9.1996554848
O         1.8235635428        7.5680404913        5.2752585259
O         0.1114081125        9.5676526638        0.2713471804
O         9.3701448942        2.0405736381        2.8409109006
O         7.4830203927       -0.1601701464        7.7004438524
O         3.7490847427        0.0578132973        2.0368732224
O        13.2189668628        1.8489962447        6.7819785757
O         0.0045206985        5.6052285776        4.4878605041
O         1.9277865334       11.3546108591        9.2648477097
O        13.1727973542       -0.0299337562        5.1326303456
O         3.7069049951        1.9539990273        0.4343640023
O         1.9462506888        5.8021669536        2.9122990608
O         0.0980028088       11.4249988069        7.5689248003
O        11.3472127310        2.0063124176        0.2869265053
O         5.8154689428       -0.0867579010        5.2762334247
O         5.5663339633        1.8281903308        6.7838617307
O        11.2700623605        0.1391342346        1.8945322642
O         1.9069668656        3.8344942858        9.2038418981
O        -0.0199529734       13.1552776778        4.4549937722
O         0.0224900674        3.8003591830        7.6778196279
O         1.8861789206       13.2364186165        2.8673949242
O         3.9650608019        3.8382666295        2.0685973712
O        13.1066817981       13.2704111443        6.7315214383
O        11.3715725578        5.6622822761        4.3850735866
O         5.6896514743       11.4700545727        9.2257670504
O        13.1781286409        3.8035064119        5.2208430402
O         3.6399180175       13.3093346626        0.5086598054
O         5.7398295482        5.9112489671        2.7398808702
O        11.3035593682       11.3379052439        7.6546953809
O        11.2516134849       13.2698961879        0.4105223411
O         5.4960536050        3.7192408892        5.1855521069
O         3.7888411690       11.3696423049        7.6810233996
O        13.2784134429        5.9242241065        2.8737475686
O         5.5182449865       13.1999672370        6.7809686015
O        11.5413722106        3.8318466396        1.9189931033
O        13.2369115426       11.4075215827        9.2090647405
O         3.8637839158        5.7140339547        4.4056360816
O         5.7624856918        5.6335503390        6.7336792118
O        11.1236582615       11.4601624366        2.0002268837
O        13.2091377291        3.9087759242        9.1359474319
O         3.7973728528       13.2147781020        4.3892237897
O        11.3573745789        5.7368406589        0.4120003544
O         5.7883130461       11.3034523199        5.2372164440
O         3.7445867092        3.7233977155        7.6495547821
O        13.2127556250       13.2154101226        2.7163633475
O        13.0537400805       11.4095102989        5.1542104124
O         3.7136862480        5.6748252346        0.4295257453
O         5.6957538666       13.1683211792        2.8686239163
O        11.2944081717        3.5633358818        7.5579261517
O         3.9623116924       11.4067110211        1.9649026906
O        13.2144584052        5.6412938568        6.8978496715
O        11.2874029511       13.3483140073        4.3219783723
O         5.6643476097        3.8113056917        9.1411248645
O         3.7856055038        7.6364691834        1.9258430250
O        13.3103227082        9.5855202084        6.7519856915
O         7.5724750389        5.5283793467        4.3203278848
O         9.4248098708       11.3233508158        9.2237469547
O        13.2649985299        7.5875283165        5.4214479695
O         3.8101496351        9.5219040993        0.3609704020
O         9.5553301042        5.5807645473        2.7904815676
O         7.5218601526       11.3460739976        7.5744749770
O        11.3445312456        9.4921884221        0.4096457433
O         5.7317933567        7.5684489698        5.1633152004
O         5.5500208619        9.4183039224        6.7579570180
O        11.2259105802        7.6056621658        2.0186453054
O         9.4355671320        3.9477090661        9.1473486734
O         7.5910172120       13.0457982638        4.4518291110
O         7.5034797956        3.6467539645        7.5501054028
O         9.4300244107       13.4662745842        2.8563180756
O         7.4436525385       -0.0385184716        2.0360630041
O         9.2154072930        1.8081385918        6.7263853573
O         0.0792536976        9.3704816968        4.4373119971
O         1.9261612185        7.5793421681        9.2015884161
O         9.3129325197       -0.0324020795        5.1955798188
O         7.6331086886        1.9049420979        0.4402603914
O         1.9644701898        9.6969880701        2.7725103026
O         0.0422364125        7.5689348976        7.6175371903
O         7.5231055847        3.7968834748        1.9479723386
O         9.5038065364       13.2091638421        6.7419795860
O        11.4413297962        9.2300816833        4.3769921105
O         5.6684718008        7.6961474667        9.1247802621
O         9.4804601501        3.6883529355        5.1840682407
O         7.5677462964       13.2197554255        0.4198006533
O         5.7409108859        9.3998977223        2.7134310402
O        11.3025937888        7.6438127083        7.5967097926
O         3.7904001389        7.3658438840        7.6021225152
O        13.3243292039        9.6150758903        2.8085552369
O        13.2654745690        7.6762926619        9.3239501806
O         3.8513962790        9.4251987312        4.2962942129
O         9.6083239231        5.5296946981        6.7537586590
O         7.6426225412       11.3272356599        1.9589697663
O         7.3447308421        5.6958494876        0.3716442764
O         9.5565968557       11.2279289456        5.1982726298
O         7.8576795134        7.5903963598        1.9236299367
O         9.4497171623        9.4174178279        6.8092394682
O         7.5590005660        9.3773591832        4.3251685195
O         9.4716222101        7.4404060344        9.2183054782
O         9.3566146868        7.4823857142        5.2468349677
O         7.5177122008        9.4677132320        0.3638411481
O         9.5712449057        9.5089433969        2.8715499058
O         7.5963920478        7.5409745398        7.5886819858
     192
 i =        2, E =     -5780.8196163001
Ti        -0.0592371707        0.1166069756        0.0322511190
Ti         1.8565964682        1.9282703793        4.8819120433
Ti         0.0397419641        2.0106249210        2.4898226225
Ti         1.8455098514       -0.0655336310        7.1918075205
Ti        -0.0565209418        3.8286150155       -0.0333859175
Ti         1.9520628897       13.2066234481        4.8400459758
Ti        11.3009429283        1.9582245240        2.4330809528
Ti         5.6007292195       -0.0751268642        7.2140913030
Ti         1.9052342980        3.8053469957        7.2470467530
Ti         0.0083569882       13.3335373269        2.4602702417
Ti         5.6818771896        1.8516191634        4.8123435049
Ti        11.2916207756        0.0930142481       -0.0327978821
Ti         3.6603422604        0.0814606824        0.0343333357
Ti        13.1635306047        1.7924901208        4.7357016658
Ti        13.2648132738       -0.0403698601        7.1775837923
Ti         3.7642611137        1.8331623202        2.5070094985
Ti         1.9633824118        5.6573857681        4.8329187905
Ti         0.0011013829       11.5647528550       -0.0063776929
Ti        -0.0150115830        5.7097048725        2.4792763762
Ti         1.8804118464       11.3448558953        7.3306640720
Ti         0.0334744375        7.4881641950        0.0291475253
Ti         2.0239764706        9.5193733979        4.8646290402
Ti         7.5006565933        1.9550943843        2.3331673284
Ti         9.4824443356       -0.1111813349        7.2264181030
Ti         1.9383544661        7.5719825042        7.1756386859
Ti         0.1043168948        9.5520562417        2.4925518269
Ti         9.3509776282        1.8216605586        4.7913760008
Ti         7.4669834126       -0.0339205926       -0.0640850407
Ti         3.7396708962        3.7713801938        0.0035849042
Ti        13.2314760392       13.1174353781        4.7788200345
Ti        11.3599381247        5.7144726898        2.3857372740
Ti         5.6737869132       11.3192659540        7.1745344060
Ti        13.1642034394        3.7050520100        7.2307166204
Ti         3.7820074356       13.1936967009        2.4442900370
Ti         5.6987163476        5.6983499057        4.8344859651
Ti        11.2240596331       11.3868168001        0.0815665062
Ti        11.3051680977       13.3134057143        2.3467812593
Ti         5.6656957405        3.7255351749        7.1418193764
Ti         3.8660523946       11.3962407065        0.0211189035
Ti        13.2754265678        5.5929276636        4.8716767489
Ti         5.7717215055       13.2037091100        4.8061626258
Ti        11.2625753237        3.7981910940       -0.0439308280
Ti        13.1238245681       11.3534820806        7.2617439460
Ti         3.8034500837        5.6321587070        2.3938414587
Ti         3.7900544459        7.5815123101        0.0314516687
Ti        13.2837014935        9.4298022566        4.8415454800
Ti         7.4940345686        5.6841051428        2.4118119541
Ti         9.4110450770       11.1780810877        7.1699611255
Ti        13.2967967403        7.5276314459        7.1967977410
Ti         3.8590091491        9.4348232232        2.3518471953
Ti         9.5194125281        5.5728324464        4.7266072518
Ti         7.5650489936       11.3538920130        0.0420150860
Ti        11.3944262275        9.4538112440        2.4341347045
Ti         5.6643862690        7.5819250136        7.2242197776
Ti         5.7699119142        9.4199720374        4.7585411843
Ti        11.3304903758        7.5856760810       -0.0002839672
Ti         9.4363019460        3.6640240327        7.1746613005
Ti         7.5408368937       13.3242779429        2.3893723827
Ti         7.4745941602        3.7981263540       -0.0579891998
Ti         9.4972218295       13.2365508476        4.7883839919
Ti         7.6104861480        7.5337055803       -0.0626917080
Ti         9.5269210955        9.4211765263        4.7784464145
Ti         7.6133187000        9.4155866977        2.3305197013
Ti         9.5178830418        7.3895820641        7.1532160954
O         0.0560129049        0.0644361591        2.0267622699
O         1.7607821759        1.9171827078        6.7656326051
O        -0.0222609188        1.9770593304        4.3922129142
O         1.7969608932        0.1237846332        9.2094310819
O         1.8159123157       -0.0106107087        5.2677528540
O        -0.1152256198        2.0074120178        0.4531407259
O         1.8674853009        2.0877502713        2.8121291863
O        -0.0525339675       -0.0537756230        7.6413803201
O        -0.0610969756        3.8907802089        2.0701229100
O         1.9859180299       13.2448617638        6.8338157132
O        11.2944697616        1.8437052234        4.3407397631
O         5.6042366056        0.0184557414        9.2481170536
O         2.0618383212        3.7795027556        5.1949298955
O         0.0474324487       13.3738317905        0.4352139209
O         5.6340463070        1.9217449277        2.8219167195
O        11.3093851162        0.0755448884        7.5726443612
O         3.7019814431        0.0826777781        7.6686513981
O        13.1898541577        1.8976217169        2.8391624437
O        13.1858524074       -0.0256184792        9.1872069097
O         3.7218369245        1.6819072933        4.3962374377
O         1.8714096459        5.6370782780        6.7697240194
O         0.0241899903       11.4260583002        1.9124288130
O         0.0368780430        5.7081384145        0.4600666290
O         1.8932190463       11.3350220581        5.2427829458
O         0.1258396488        7.6983002104        1.9367603322
O         2.0530643235        9.4672872887        6.7931327420
O         7.4976983821        1.9139984971        4.3796964488
O         9.4180691877        0.0139830258        9.1717235289
O         1.8956097754        7.5661568894        5.2697198061
O         0.0838638163        9.5421742255        0.2687470246
O         9.3821859555        1.9803260866        2.8210855638
O         7.4778240186       -0.1311429223        7.6726166428
O         3.7348604860        0.0642485371        2.0315205118
O        13.2723343297        1.8662328090        6.7885129697
O         0.0119368243        5.5949637807        4.4630890488
O         1.8909198562       11.3530942090        9.2455030134
O        13.2294035819       -0.0044565718        5.1718400293
O         3.7140157539        1.9343273956        0.4439823371
O         1.9424029856        5.7487572087        2.8695105315
O         0.0483044837       11.4330847395        7.5987107571
O        11.3224433925        1.9830416967        0.3136850808
O         5.7864359814       -0.0572397670        5.2554837831
O         5.6321694612        1.8250269649        6.7791513649
O        11.2990120203        0.1287333962        1.9181501871
O         1.8856979756        3.8175088623        9.2349196468
O        -0.0111734468       13.2075737695        4.4118176266
O         0.0019066137        3.7806713369        7.6777440146
O         1.8810610240       13.2378456045        2.8643946925
O         3.8999730440        3.8487995483        2.0570355672
O        13.1567755507       13.2353572798        6.7824357677
O        11.3676636724        5.6653462177        4.4033295367
O         5.6966519231       11.4547128107        9.2257638610
O        13.1570299481        3.8050323942        5.2220919166
O         3.6504490996       13.2947417004        0.4767567328
O         5.7107166072        5.8724729474        2.7654299213
O        11.3200405387       11.3345168498        7.6158132622
O        11.2749680911       13.2731620778        0.3884278520
O         5.5873462307        3.7217174119        5.1880920017
O         3.7916689686       11.3758418407        7.6655093235
O        13.2876618056        5.9014930686        2.8674025202
O         5.5216820011       13.2041593135        6.8080187579
O        11.4756374003        3.8068324161        1.9611807975
O        13.2562916182       11.4304316800        9.1979850045
O         3.8554814651        5.7215450012        4.3992786082
O         5.7512030688        5.6322921111        6.7342834222
O        11.2180732472       11.4106878555        2.0064695796
O        13.2072380901        3.8894658916        9.1472200379
O         3.7827807099       13.2310281628        4.4150243946
O        11.4027844663        5.7427496416        0.4084129341
O         5.7406406196       11.2894539247        5.2488059508
O         3.7567011209        3.7246555383        7.6586867390
O        13.2312781529       13.2686802149        2.7775157323
O        13.0889604559       11.3474508257        5.1605046507
O         3.7413603051        5.6809886667        0.4252043339
O         5.6938121908       13.2324564937        2.8548114155
O        11.3028752841        3.5817204477        7.5797250171
O         3.9224862761       11.4002182931        1.9850559742
O        13.2223305696        5.6546454702        6.8353819112
O        11.3053557469       13.3072610770        4.3403478881
O         5.6585083215        3.7836072230        9.1590182923
O         3.7552766289        7.6114445171        1.9408463157
O        13.3094065790        9.5435776766        6.7819211064
O         7.5847585652        5.5205878931        4.3312430628
O         9.4333430666       11.3099374619        9.1732233946
O        13.2990619162        7.5755376713        5.3426209231
O         3.7972904641        9.5093187840        0.3807848093
O         9.5060360705        5.5791739026        2.7976072537
O         7.5192667586       11.3220793970        7.5651757298
O        11.3610650731        9.4842603337        0.4697574630
O         5.7452678678        7.5503516579        5.1800489869
O         5.6029593022        9.4038967940        6.7701625104
O        11.3006058249        7.6167770893        2.0004118898
O         9.4164364137        3.9280461381        9.1490337201
O         7.5732821173       13.0881134768        4.4067344433
O         7.5207440235        3.6942902768        7.5748844473
O         9.4261956575       13.3729685396        2.8233459656
O         7.4814849374        0.0023808884        2.0331159377
O         9.2824035593        1.8235538597        6.7595991590
O         0.0525172554        9.4373903802        4.4210635316
O         1.9057948124        7.6634371972        9.2128460689
O         9.3571915553       -0.0230107156        5.2044436242
O         7.5603289419        1.9139109545        0.4107034661
O         1.9356149228        9.6325174399        2.7680604826
O         0.0321900385        7.5846878125        7.6164781623
O         7.4800189005        3.8183893292        1.9464798544
O         9.4847759931       13.2167842630        6.7608115416
O        11.4118651364        9.2494971483        4.4013811547
O         5.6716612405        7.6479206942        9.1549405650
O         9.4559663820        3.7122974300        5.1956703111
O         7.5857110832       13.2530815582        0.4296533902
O         5.7304378002        9.4120414249        2.7527498546
O        11.3377855140        7.6243296159        7.6375909539
O         3.7827856170        7.3972227839        7.5979734612
O        13.2910510481        9.6009934919        2.8122439811
O        13.2663652682        7.6585574543        9.2263251254
O         3.8432862218        9.3938122187        4.3193001621
O         9.5403377992        5.5646301772        6.7641315779
O         7.6641972499       11.3295856500        1.9541646340
O         7.4164752025        5.6907138667        0.4040345704
O         9.5557987264       11.2538735046        5.2084667632
O         7.7908099870        7.5598821153        1.9428577495
O         9.4653634437        9.4105724795        6.8355536233
O         7.5808232070        9.3887487255        4.3429995376
O         9.4705589145        7.4989548018        9.1813129467
O         9.4035285303        7.4928504847        5.2326709283
O         7.5320828264        9.4545638311        0.3673128891
O         9.5274181937        9.5072873323        2.8656730529
O         7.5892412629        7.5155615642        7.5954357761
     192
 i =        3, E =     -5780.8571812436
Ti        -0.0481944924        0.1173595508        0.0174366858
Ti         1.8642207892        1.9206909401        4.8696347558
Ti         0.0358754594        2.0057476743        2.4717434871
Ti         1.8505145686       -0.0537825501        7.2010857186
Ti        -0.0658344638        3.8168874884       -0.0303342622
Ti         1.9493424203       13.2228334755        4.8286234263
Ti        11.3240137692        1.9446068504        2.4326646745
Ti         5.6055204727       -0.0515984188        7.2109722009
Ti         1.9012094952        3.7946317409        7.2469114120
Ti         0.0051376226       13.3342072791        2.4471878956
Ti         5.6872838710        1.8600077740        4.8130141071
Ti        11.2852658044        0.0818427461       -0.0273768514
Ti         3.6702347256        0.0800853796        0.0272658646
Ti        13.1814420966        1.8133746757        4.7669791272
Ti        13.2494011428       -0.0286085455        7.1971885989
Ti         3.7726807822        1.8416071896        2.4840314895
Ti         1.9586514483        5.6668265800        4.8267062409
Ti        -0.0115039597       11.5534738685       -0.0156165599
Ti        -0.0087938790        5.6998930316        2.4719964706
Ti         1.8660778005       11.3529488865        7.2969686574
Ti         0.0151552254        7.4967250936        0.0069014134
Ti         2.0039317993        9.5188747592        4.8477959542
Ti         7.5158747392        1.9469764227        2.3336657289
Ti         9.4703163810       -0.0924799038        7.2175020854
Ti         1.9260770511        7.5677437949        7.1773972692
Ti         0.0842987937        9.5312491811        2.4921177771
Ti         9.3661444234        1.8373086376        4.7874359866
Ti         7.4667986134       -0.0101221963       -0.0560789918
Ti         3.7451301356        3.7766476729        0.0127105520
Ti        13.2339025852       13.1416348191        4.7830251416
Ti        11.3627746710        5.7080693631        2.3925316127
Ti         5.6691272782       11.3188912771        7.1904582627
Ti        13.1764879708        3.7210511167        7.2188765322
Ti         3.7799867189       13.2180885496        2.4227084402
Ti         5.7001067881        5.6807698089        4.8404366536
Ti        11.2407794645       11.3880879900        0.0544263829
Ti        11.3233768716       13.2971588902        2.3676594124
Ti         5.6655086430        3.7320593164        7.1589797494
Ti         3.8448504845       11.3898101824        0.0193947657
Ti        13.2708051437        5.5967431832        4.8495686212
Ti         5.7472075908       13.2034035179        4.7980087891
Ti        11.2686738974        3.7963265877       -0.0206293420
Ti        13.1633046648       11.3305281562        7.2720343528
Ti         3.7946405096        5.6324131922        2.3916285136
Ti         3.7772446974        7.5940401726        0.0153639670
Ti        13.2807120382        9.4379903329        4.8399052802
Ti         7.4997360659        5.6904512965        2.4060792987
Ti         9.4180942487       11.2085930331        7.1643776152
Ti        13.2955878512        7.5231487936        7.1832087648
Ti         3.8392024067        9.4331061671        2.3769608922
Ti         9.5013655505        5.5847822121        4.7442386045
Ti         7.5711462789       11.3479896111        0.0254520085
Ti        11.4015828386        9.4555087813        2.4259631046
Ti         5.6717897328        7.5611243484        7.2355841845
Ti         5.7583186212        9.4145228474        4.7767187567
Ti        11.3519383313        7.5904949788       -0.0136845622
Ti         9.4328778107        3.6867021886        7.1838377725
Ti         7.5477329925       13.3300336014        2.3806645601
Ti         7.4821425631        3.8047605272       -0.0479050796
Ti         9.4891075884       13.2303060601        4.7892081174
Ti         7.6112826009        7.5362590565       -0.0607665116
Ti         9.5175061109        9.4294103270        4.7753597421
Ti         7.6082263225        9.4338574208        2.3505820980
Ti         9.5110268571        7.4304646190        7.1639499503
O         0.0449142651        0.0756604858        1.9986386169
O         1.8040905479        1.9141922954        6.7776534993
O         0.0053926020        1.9472200276        4.3952282598
O         1.8156047835        0.1232894845        9.2054619725
O         1.8084209613       -0.0134321152        5.2650394555
O        -0.1055709638        1.9924095346        0.4432041208
O         1.8706020164        2.0263723951        2.8000530641
O        -0.0390007341       -0.0612850132        7.6346993754
O        -0.0886016517        3.8761189668        2.0475812330
O         1.9608985313       13.2323597797        6.8330609862
O        11.2927074321        1.8523767141        4.3705773090
O         5.5911260472        0.0148422755        9.2336401919
O         2.0296626994        3.7850305357        5.2123701427
O         0.0376200295       13.3585273282        0.4258308773
O         5.6452133058        1.9550220072        2.8169420242
O        11.3061656644        0.0581717517        7.5792486992
O         3.7124067329        0.0371487745        7.6635292625
O        13.2036715004        1.8918108520        2.8497508270
O        13.1921426300        0.0388219015        9.1782024705
O         3.7485459604        1.7257566035        4.4029450827
O         1.8585040041        5.6501542187        6.7968447019
O        -0.0144118308       11.4077184380        1.9189134361