     192
 i =        1, E =     -5780.7265808928
Ti        -0.0039935226        0.0145458809       -0.0061076128
Ti        -0.0079335624       -0.0034352731       -0.0161382155
Ti        -0.0064869577        0.0016990061       -0.0149355561
Ti        -0.0066370393        0.0091376688        0.0133462066
Ti        -0.0051633727       -0.0064929063        0.0142620081
Ti         0.0032454057        0.0029767970        0.0030008943
Ti         0.0038903291        0.0032093171       -0.0261626071
Ti         0.0000904848        0.0069277829        0.0046839900
Ti        -0.0002910189       -0.0129665947       -0.0056369129
Ti        -0.0118605975       -0.0032286766        0.0003607586
Ti        -0.0144936223        0.0025478790        0.0002588534
Ti        -0.0046885030       -0.0073515809       -0.0009718770
Ti        -0.0002789398       -0.0053033260       -0.0053823157
Ti         0.0144406545        0.0051291116        0.0230251443
Ti        -0.0143475717        0.0082713560        0.0085793182
Ti         0.0030312861        0.0209974200       -0.0135712510
Ti        -0.0016694824        0.0066026823       -0.0185566034
Ti        -0.0016768720        0.0004017483       -0.0101652903
Ti         0.0068639078        0.0035069341        0.0048482384
Ti         0.0099335621        0.0070512397       -0.0170136114
Ti        -0.0091047014        0.0069184183       -0.0101076208
Ti        -0.0033208888       -0.0108730203       -0.0312849623
Ti        -0.0019078975       -0.0120498105       -0.0074926372
Ti        -0.0037617924        0.0081960039        0.0004369675
Ti        -0.0012878559       -0.0057273052        0.0099244144
Ti         0.0000271628       -0.0064163286        0.0129744459
Ti        -0.0000470881        0.0014406068        0.0089640122
Ti         0.0143242701        0.0074729282        0.0281702468
Ti         0.0151660575        0.0005298562        0.0057956360
Ti        -0.0106964208        0.0201699249       -0.0079203748
Ti         0.0062880295       -0.0074586999        0.0016244495
Ti        -0.0017349324       -0.0034604549        0.0118138792
Ti         0.0046986660        0.0025387743       -0.0119951535
Ti         0.0054862899        0.0173932820        0.0008275427
Ti         0.0153761414       -0.0090062299       -0.0086134795
Ti         0.0009015495        0.0030064763       -0.0117861484
Ti         0.0008521992        0.0018654891       -0.0018772644
Ti        -0.0032869991        0.0007047194        0.0007526164
Ti        -0.0055487417       -0.0025035864       -0.0160173525
Ti        -0.0108874283        0.0097881586        0.0009868426
Ti        -0.0093860381       -0.0069673379       -0.0058836493
Ti         0.0038673176        0.0133803616        0.0104185768
Ti         0.0079990778        0.0022257821        0.0003161359
Ti         0.0045034708        0.0076193283        0.0059495267
Ti         0.0018114300        0.0101479770       -0.0178574190
Ti         0.0004398629        0.0073901914       -0.0023814685
Ti         0.0026344953        0.0062956586       -0.0024489757
Ti        -0.0075062737        0.0280553721        0.0047602796
Ti        -0.0071039085        0.0002075153        0.0200959171
Ti        -0.0117894601        0.0055952583        0.0004894101
Ti        -0.0033185745        0.0017341694        0.0103729138
Ti         0.0092112426       -0.0000249989       -0.0146572248
Ti         0.0102976038        0.0054413143       -0.0063790598
Ti         0.0060589139       -0.0083349351        0.0056301748
Ti        -0.0123796550        0.0051362934        0.0018063826
Ti         0.0026056972        0.0084970345       -0.0067931350
Ti        -0.0044017258       -0.0021024803       -0.0020966292
Ti         0.0098923298       -0.0073795069       -0.0030941081
Ti         0.0101260896       -0.0026630217        0.0037249440
Ti        -0.0072599897       -0.0083508443        0.0096732427
Ti         0.0014904239        0.0027369044       -0.0045073913
Ti         0.0001950671        0.0008243257        0.0064272349
Ti        -0.0013651426        0.0050676032        0.0042911779
Ti        -0.0110722211        0.0063887125        0.0061743801
O         0.0013287002        0.0017889717       -0.0078968902
O         0.0099599096       -0.0021023519        0.0157678760
O         0.0162356006       -0.0035245665        0.0037977996
O         0.0036261451       -0.0032765280       -0.0049352430
O         0.0009060014        0.0002052805       -0.0062828378
O         0.0056867999       -0.0019406819       -0.0049676494
O         0.0040456747       -0.0116588883       -0.0006403714
O         0.0165686723       -0.0009335100        0.0048316911
O        -0.0029999945       -0.0038874495       -0.0055694472
O        -0.0006253684       -0.0174731518        0.0021371710
O        -0.0130599149       -0.0004940481        0.0169478955
O        -0.0188074500        0.0045924420       -0.0033514618
O        -0.0053225828        0.0106437372        0.0060798352
O         0.0013712985       -0.0044886483        0.0017075285
O         0.0015088973        0.0060313797       -0.0028771381
O         0.0077670504        0.0008106894        0.0025051848
O         0.0007810845       -0.0037362140       -0.0050524511
O        -0.0010694229        0.0029923177       -0.0075908570
O         0.0081097288        0.0089630108       -0.0079238219
O         0.0061241855        0.0010968462        0.0171459544
O        -0.0042158211        0.0096308658        0.0176559631
O        -0.0016460329       -0.0086297581        0.0032994048
O        -0.0062590095       -0.0098827897       -0.0004666473
O        -0.0013407741        0.0150455370        0.0036880194
O        -0.0004854445       -0.0051974330        0.0005780293
O        -0.0093133289       -0.0017959925        0.0187997688
O         0.0176570301        0.0042186190        0.0050155114
O         0.0029134347       -0.0019535286       -0.0054859257
O         0.0085804191       -0.0003715473       -0.0058938173
O        -0.0030864788       -0.0043402311       -0.0016813705
O         0.0040086180       -0.0059619352       -0.0096596226
O        -0.0029979084        0.0027197976       -0.0226178372
O        -0.0005786393       -0.0122333050       -0.0008786745
O         0.0053745024        0.0034359616       -0.0040189987
O         0.0112491070       -0.0008332677       -0.0085490349
O        -0.0135736074        0.0004639985        0.0035591948
O         0.0057450806        0.0102248331        0.0057051450
O         0.0005375133       -0.0050556729        0.0063217920
O        -0.0074257969       -0.0060362350       -0.0081707133
O        -0.0248712108        0.0025877661        0.0105085934
O        -0.0029776831       -0.0151442441        0.0074080322
O        -0.0035359374        0.0145460607       -0.0042661091
O         0.0065566598       -0.0021403141        0.0008135818
O         0.0034712385       -0.0009443835        0.0054213884
O        -0.0136714333       -0.0010693732        0.0057688136
O         0.0072845720        0.0053943864       -0.0107503487
O        -0.0078806523       -0.0007123845       -0.0068988132
O         0.0039460503       -0.0008923498        0.0010857641
O        -0.0076402067       -0.0079644565       -0.0063823632
O         0.0051430600       -0.0182448813        0.0041021165
O         0.0043339141       -0.0005429575        0.0033561268
O         0.0016176543       -0.0007569472       -0.0041612613
O        -0.0033426095       -0.0134623419        0.0007387592
O         0.0010068706        0.0007127086       -0.0102278794
O        -0.0153063557       -0.0047774658        0.0041994724
O         0.0015057020       -0.0003433062       -0.0011718287
O         0.0028601399        0.0119369869       -0.0056319742
O         0.0094288884       -0.0031858001        0.0017772932
O         0.0117379546        0.0002322292        0.0003884796
O         0.0036121212       -0.0042482113        0.0012036271
O        -0.0017356483        0.0002453439        0.0068235416
O        -0.0084625003       -0.0065655529        0.0064761566
O         0.0078346348        0.0010495646       -0.0005767091
O        -0.0097624070        0.0000201799       -0.0014957371
O        -0.0025229269        0.0055494800        0.0042283027
O         0.0114364257       -0.0195591443        0.0076197622
O         0.0009808300       -0.0009200977        0.0052243144
O        -0.0062188321        0.0015015203        0.0103834313
O         0.0049463893       -0.0042152247       -0.0015471729
O        -0.0076718710       -0.0049665651       -0.0032706881
O         0.0078465643       -0.0001808759       -0.0014348010
O         0.0055106308        0.0061668374        0.0129234675
O         0.0016014052       -0.0328732884        0.0036533154
O         0.0029640555       -0.0003122343        0.0012954334
O        -0.0026655488        0.0076098296       -0.0021190054
O         0.0058822364        0.0023948544        0.0024959378
O        -0.0027752426       -0.0131150492        0.0102739766
O         0.0005527360        0.0042216425       -0.0061987167
O         0.0211744125       -0.0038982360        0.0054250766
O        -0.0123214106       -0.0021334064        0.0029912928
O        -0.0024519016       -0.0108690096        0.0087780193
O        -0.0004595847       -0.0082482741        0.0097108247
O         0.0024533559       -0.0006955145        0.0036941810
O        -0.0064836561       -0.0015402314       -0.0092171716
O         0.0018255324       -0.0047468478       -0.0329603676
O         0.0001812824       -0.0039427029        0.0031658132
O        -0.0186964821       -0.0007707602       -0.0011006330
O         0.0066503758       -0.0023435313        0.0026936032
O         0.0037395180       -0.0029883610        0.0118926728
O        -0.0008133630       -0.0013658008        0.0051948966
O         0.0038416429        0.0010028956       -0.0024273559
O         0.0083697134        0.0021923988       -0.0066938079
O        -0.0117274196       -0.0023337407       -0.0027243190
O         0.0029723069        0.0047142342       -0.0082996131
O         0.0070446816        0.0041838663        0.0059603324
O        -0.0097176498       -0.0089086459       -0.0100170698
O         0.0037542757        0.0191216374       -0.0040370192
O         0.0081515019        0.0034061452        0.0077548960
O        -0.0013239391        0.0087288975       -0.0106142388
O         0.0001774588        0.0095086204        0.0002345803
O         0.0050417095        0.0002935622       -0.0004501383
O        -0.0082815613       -0.0034924957       -0.0072578522
O        -0.0027902275       -0.0071223988        0.0026719069
O         0.0008369424        0.0013837259        0.0033426983
O        -0.0036852940        0.0095591268       -0.0018518152
O        -0.0027263077       -0.0062593385        0.0045132262
O        -0.0075586364        0.0027520081        0.0049185767
O        -0.0034531433       -0.0056493276        0.0079266009
O        -0.0024266180        0.0054458190        0.0011800763
O         0.0015898064        0.0129515511        0.0032034386
O         0.0045173644        0.0030868585        0.0053048676
O         0.0233737217       -0.0021910831        0.0111032811
O        -0.0021069852        0.0045977438       -0.0012726981
O        -0.0122552763       -0.0018909123        0.0000005469
O         0.0065143061       -0.0038616878       -0.0116783080
O        -0.0030278944       -0.0022440281        0.0081370270
O        -0.0071653116        0.0095607886        0.0002687281
O         0.0024985641        0.0003096679        0.0058661623
O         0.0071812541       -0.0015302801        0.0020457013
O        -0.0021261446        0.0070630866        0.0016604371
O        -0.0060840258       -0.0107733863        0.0037444817
O         0.0011143117       -0.0240314987       -0.0018659334
O         0.0230167112        0.0021479164        0.0015879489
O        -0.0079114999        0.0054069678       -0.0076780054
O         0.0040942292       -0.0037254986       -0.0066852022
O         0.0022557708       -0.0107479626        0.0017856415
O        -0.0214396701        0.0014515750       -0.0060403231
O        -0.0022970773       -0.0044984075        0.0038339040
     192
 i =        2, E =     -5780.8196163001
Ti        -0.0022881248        0.0039163635        0.0025863749
Ti         0.0012565728       -0.0038856641       -0.0046155093
Ti        -0.0036237073       -0.0017439142       -0.0113881161
Ti         0.0010965683        0.0170048311        0.0045788789
Ti         0.0025265719       -0.0035938887        0.0028467412
Ti        -0.0038174317        0.0061406026       -0.0048864996
Ti        -0.0005485669        0.0042095444       -0.0062623994
Ti         0.0002381141        0.0073221753        0.0062746510
Ti        -0.0051742077       -0.0086013455       -0.0026416468
Ti        -0.0009766535       -0.0017414713       -0.0034009810
Ti        -0.0075924120        0.0000110541        0.0023949300
Ti         0.0020498964        0.0011122983       -0.0038175180
Ti         0.0046901179       -0.0040123210       -0.0038524411
Ti         0.0030325502        0.0069754592        0.0151667519
Ti        -0.0103476329        0.0080479971        0.0023809486
Ti        -0.0024825825        0.0143021989       -0.0103283601
Ti         0.0003327234        0.0036247127       -0.0106086917
Ti        -0.0019185975        0.0053680546       -0.0053888442
Ti         0.0092500639        0.0049666676        0.0032280690
Ti         0.0010152998       -0.0032182131       -0.0113857181
Ti        -0.0031358511        0.0077597783       -0.0110702862
Ti        -0.0049971575       -0.0096612922       -0.0107296726
Ti         0.0041255204       -0.0014641913        0.0042310710
Ti        -0.0079407303        0.0087463161       -0.0011912602
Ti        -0.0059425799       -0.0022592691        0.0068334698
Ti        -0.0072395803       -0.0022806062        0.0037278172
Ti         0.0013384750        0.0059697713       -0.0021036642
Ti         0.0002326656        0.0093706889        0.0066815296
Ti         0.0061692678        0.0052944815        0.0063511956
Ti        -0.0011770045        0.0168371913       -0.0042032678
Ti         0.0015681151       -0.0003000894        0.0027415492
Ti        -0.0064497394       -0.0019931931        0.0059318315
Ti         0.0121072175       -0.0005439971       -0.0089681983
Ti        -0.0052596711        0.0111980782       -0.0053407090
Ti         0.0073218138       -0.0038579149       -0.0039681896
Ti         0.0150266301       -0.0067032754       -0.0098553540
Ti         0.0014961174        0.0005011022        0.0069123136
Ti        -0.0021243594        0.0003562340        0.0033355967
Ti        -0.0069610252        0.0060427716       -0.0070459991
Ti        -0.0035456876        0.0096429530       -0.0024416503
Ti        -0.0096566286        0.0006959934        0.0027108875
Ti         0.0049776077        0.0074652330        0.0055365535
Ti         0.0104361789       -0.0009325312        0.0035378442
Ti        -0.0034123496        0.0039809924        0.0027819016
Ti        -0.0018282837       -0.0041913032       -0.0114425107
Ti         0.0000529164       -0.0001858962       -0.0026535533
Ti         0.0114657295        0.0026413358       -0.0073017061
Ti         0.0014399210        0.0130265744       -0.0009145652
Ti        -0.0021700655        0.0065652153        0.0161250391
Ti        -0.0076978707        0.0042230077        0.0029702918
Ti        -0.0078854489        0.0044652847        0.0062316340
Ti        -0.0030233685       -0.0054689595       -0.0010102620
Ti         0.0077407481        0.0022659256       -0.0051204752
Ti         0.0057017349       -0.0084051964       -0.0018300382
Ti        -0.0034110154       -0.0033199073        0.0037214831
Ti         0.0066789023        0.0079284596       -0.0045914070
Ti        -0.0076558339        0.0006652428       -0.0029945982
Ti         0.0088078814       -0.0105175924       -0.0000143451
Ti         0.0036802528        0.0056421656        0.0043659582
Ti        -0.0039185411       -0.0036893314        0.0049158312
Ti        -0.0024129404       -0.0021727618        0.0010147756
Ti        -0.0039001654       -0.0096708752        0.0003577360
Ti         0.0048337412        0.0027734782        0.0054257361
Ti        -0.0091059466        0.0066668980        0.0009678850
O        -0.0013381023        0.0116897713       -0.0008493437
O         0.0014198702        0.0010908084        0.0056682745
O         0.0026823684       -0.0034857332        0.0066998401
O         0.0075315575        0.0014082445        0.0007677997
O        -0.0014349818       -0.0035529718       -0.0047063470
O         0.0001603852       -0.0070417800        0.0039745479
O         0.0022674723       -0.0044522357       -0.0001830392
O         0.0075648471       -0.0013149047       -0.0016673449
O        -0.0018760391       -0.0052244808       -0.0038992211
O        -0.0024561197       -0.0123279775       -0.0003380576
O        -0.0060113295       -0.0006778976        0.0094098338
O        -0.0041894452       -0.0027046648       -0.0020068876
O        -0.0017458460        0.0009232264        0.0059479886
O        -0.0007885175       -0.0084468824       -0.0025400112
O         0.0054811504        0.0000336417       -0.0004425987
O         0.0013007439       -0.0030120525        0.0020310790
O         0.0036160930       -0.0048923683        0.0004117892
O         0.0046612077       -0.0021082229       -0.0049273739
O        -0.0013142280        0.0051359031        0.0000003676
O         0.0075038644        0.0034911536        0.0080197423
O         0.0002810560        0.0053586948        0.0083946456
O        -0.0024849309       -0.0060332857        0.0062915792
O        -0.0013859003       -0.0043145529       -0.0001381472
O         0.0000712786        0.0073636505        0.0013780731
O        -0.0041489429       -0.0023821696        0.0054596713
O        -0.0033138064        0.0023969726        0.0071486932
O         0.0067162304       -0.0026160263        0.0001460290
O         0.0020510771       -0.0008272084        0.0000130361
O         0.0007352947        0.0041523676       -0.0077926214
O        -0.0068661938       -0.0006401783       -0.0008101503
O         0.0030461298       -0.0020771389       -0.0076764060
O         0.0013003178        0.0007400284       -0.0058318065
O         0.0011877800       -0.0149127745       -0.0012023285
O         0.0001781719        0.0032298500       -0.0026652015
O         0.0089588498        0.0000853016       -0.0043017435
O        -0.0000918169       -0.0005700921        0.0014971489
O         0.0015582700       -0.0025287972        0.0026439391
O        -0.0004618219        0.0012187874        0.0050609812
O        -0.0091936795       -0.0007086936       -0.0000396997
O        -0.0071099143        0.0001686443        0.0035075581
O        -0.0038152945       -0.0086352582        0.0077667322
O        -0.0035629911       -0.0029057310       -0.0036485619
O         0.0012106148        0.0055246840        0.0008527890
O        -0.0005051348       -0.0146534377        0.0021230506
O        -0.0042816303        0.0024113476       -0.0030029505
O        -0.0014541043       -0.0014767641        0.0006136215
O        -0.0024315688       -0.0009830685       -0.0062548204
O         0.0105084844       -0.0015213633        0.0017878110
O        -0.0039974532       -0.0153008001       -0.0048273619
O         0.0040976905       -0.0045651188       -0.0078191536
O         0.0028683179       -0.0006813372       -0.0052652093
O         0.0024301400       -0.0030382541       -0.0019366934
O         0.0016517485       -0.0159575381       -0.0006942399
O         0.0019678200       -0.0000743102       -0.0043677671
O        -0.0099845143       -0.0028824961        0.0035104153
O        -0.0048227910       -0.0003270627        0.0063580884
O         0.0025647396        0.0039749780        0.0042305664
O        -0.0016253322       -0.0000989359        0.0028155930
O         0.0052195307       -0.0047821303        0.0062475554
O        -0.0067844045       -0.0028363212       -0.0001571087
O         0.0026089228       -0.0028184716       -0.0034690720
O        -0.0047490414        0.0074132861       -0.0045460849
O        -0.0113461153       -0.0055674232        0.0042460012
O        -0.0079489367       -0.0037964637        0.0020399797
O        -0.0039166621        0.0033149840        0.0072017765
O         0.0055762079        0.0037519712       -0.0006696245
O        -0.0087699483        0.0020130707        0.0049105477
O         0.0025879073       -0.0002281211        0.0000345119
O        -0.0002720767       -0.0097704730        0.0031229606
O        -0.0038443478        0.0058077262       -0.0048711371
O         0.0045652754        0.0008803656       -0.0026701115
O        -0.0082124109       -0.0003313384        0.0038968025
O         0.0047793996       -0.0046564402        0.0016832493
O         0.0039536254        0.0033565358       -0.0031939045
O        -0.0062239346        0.0030777471       -0.0000580410
O         0.0009804323        0.0033334404        0.0050014861
O        -0.0030384589       -0.0089044391        0.0065750255
O        -0.0002071430       -0.0026518942        0.0027046588
O         0.0093287201       -0.0027547182        0.0005686484
O        -0.0078372996       -0.0017043928       -0.0013780896
O         0.0024503980       -0.0006660127        0.0032850924
O        -0.0016336821       -0.0105910334        0.0037339460
O        -0.0042093348        0.0025578123        0.0062249831
O        -0.0042051520        0.0004238709        0.0004636101
O         0.0011263585       -0.0002655030       -0.0195228491
O         0.0019369298       -0.0010548588        0.0033585642
O         0.0038557001        0.0029218061       -0.0030342390
O         0.0107936905        0.0000621865        0.0043213802
O        -0.0007128913        0.0052564435       -0.0055736158
O         0.0005307300        0.0010366751        0.0050368000
O        -0.0007041985        0.0045674227        0.0007733742
O         0.0003858942       -0.0113713834        0.0022499135
O         0.0019942977       -0.0034437373        0.0021107180
O         0.0071761349        0.0041075603       -0.0006753353
O         0.0027553335        0.0024131133        0.0016743612
O         0.0028774899       -0.0024408637       -0.0059874348
O        -0.0005504693        0.0110395853       -0.0055373513
O         0.0038812740       -0.0001961389        0.0017519231
O         0.0077535723        0.0014040432       -0.0077314501
O         0.0008427418        0.0002544149       -0.0024342161
O         0.0007428303       -0.0058675151       -0.0026131501
O        -0.0002826038       -0.0063240228       -0.0041110465
O         0.0091855754       -0.0031322778        0.0060716803
O         0.0017854760       -0.0031637226        0.0003559554
O        -0.0005244767       -0.0034071984       -0.0007285261
O        -0.0028701698       -0.0075488516       -0.0015271128
O        -0.0028731550        0.0056310666        0.0041407424
O        -0.0037819539       -0.0004155244        0.0023954804
O         0.0037427732       -0.0008136784        0.0034531603
O        -0.0001521689       -0.0008538188       -0.0015149753
O         0.0002759166        0.0011528142       -0.0015508658
O         0.0136478252       -0.0047418224       -0.0036714146
O        -0.0001682635        0.0027443485        0.0044406701
O        -0.0035493921       -0.0023063541        0.0011647963
O         0.0030752869        0.0002706908        0.0002108413
O        -0.0062512566        0.0041814848        0.0067006696
O        -0.0009235940        0.0063807941        0.0016588404
O        -0.0040556940        0.0035601116       -0.0021499793
O         0.0030578365        0.0006135554       -0.0073780765
O        -0.0038356852        0.0102153257        0.0007567091
O        -0.0040003719        0.0029551490        0.0007333480
O        -0.0003746115       -0.0091483532       -0.0065824949
O         0.0105499881        0.0038390691        0.0015013539
O        -0.0010983769        0.0019652472        0.0013934893
O         0.0035133063        0.0001997861       -0.0032773449
O         0.0000484755       -0.0007852988        0.0012355994
O        -0.0081037377        0.0000727960       -0.0029495912
O         0.0000682223       -0.0002828731        0.0033001889
     192
 i =        3, E =     -5780.8571812436
Ti        -0.0022982524        0.0012014338        0.0024368409
Ti         0.0035850902       -0.0016305426       -0.0022644476
Ti        -0.0032096267       -0.0042367387       -0.0065126572
Ti         0.0004624810        0.0116877437        0.0008157636
Ti         0.0036036329        0.0013556304        0.0000642278
Ti        -0.0051624042        0.0040402589       -0.0037176702
Ti        -0.0034700507        0.0006516757       -0.0023804273
Ti         0.0002208217        0.0008686746        0.0035438476
Ti        -0.0042249238       -0.0029205151       -0.0015001829
Ti         0.0015881242       -0.0038217628       -0.0023626871
Ti        -0.0065170601       -0.0019692082       -0.0001469697
Ti         0.0018645541        0.0005239923       -0.0005392242
Ti         0.0058276819       -0.0057222269       -0.0036036834
Ti         0.0008346018        0.0065251142        0.0084883923
Ti        -0.0044988053        0.0013221214       -0.0017799460
Ti        -0.0015093838        0.0116092352       -0.0044556881
Ti        -0.0003071762        0.0015827222       -0.0042754915
Ti         0.0010537736        0.0052932731        0.0010282459
Ti         0.0084415574        0.0073236574       -0.0011866100
Ti         0.0026826087       -0.0050262288       -0.0057236721
Ti         0.0018353141        0.0000602174       -0.0064728559
Ti        -0.0044145584       -0.0075500832       -0.0030777096
Ti         0.0044579053        0.0022165081        0.0053184920
Ti        -0.0083791431        0.0068371043       -0.0023583211
Ti        -0.0042445781       -0.0011320451        0.0049589342
Ti        -0.0078077113        0.0000689861       -0.0007598757
Ti         0.0046148546        0.0031634824       -0.0011934460
Ti        -0.0011209539        0.0045779394        0.0008297974
Ti         0.0020595897        0.0069625739        0.0030517150
Ti         0.0026540188        0.0085296556        0.0046688465
Ti        -0.0011715256        0.0025832056        0.0027312542
Ti        -0.0051396437       -0.0001529038        0.0027386879
Ti         0.0081557458        0.0007557943       -0.0041982375
Ti        -0.0045679320        0.0036237655       -0.0027517349
Ti         0.0034625307       -0.0017791111       -0.0065070249
Ti         0.0146383890       -0.0059487433       -0.0060096271
Ti        -0.0001418781        0.0002031418        0.0026718820
Ti        -0.0034351028       -0.0000848606        0.0050201671
Ti        -0.0055743704        0.0040949077       -0.0039283534
Ti        -0.0023810116        0.0104000797       -0.0020837633
Ti        -0.0079918935        0.0021709804        0.0054851155
Ti         0.0034309732        0.0064228666        0.0005749607
Ti         0.0056340848        0.0019413029       -0.0049025844
Ti        -0.0011831060        0.0053605585        0.0015136187
Ti         0.0004833434       -0.0041724376       -0.0059886745
Ti        -0.0044114480       -0.0017685956       -0.0018774128
Ti         0.0081249105        0.0024721613       -0.0045736782
Ti         0.0028918244        0.0079069984       -0.0008850281
Ti        -0.0014608569        0.0073931823        0.0063140096
Ti        -0.0025252268        0.0030417109       -0.0005010914
Ti        -0.0039145133        0.0066876950        0.0038638728
Ti        -0.0054162716       -0.0048256393        0.0019915117
Ti         0.0025014864        0.0011506847       -0.0022694202
Ti         0.0019647003       -0.0034499106       -0.0012713778
Ti        -0.0003623836       -0.0028728733        0.0032909401
Ti         0.0025848962        0.0045418797       -0.0011544769
Ti        -0.0024048865        0.0011465000       -0.0014308068
Ti         0.0060716536       -0.0116958600        0.0001140936
Ti         0.0022968028        0.0049342820        0.0040075200
Ti        -0.0042808242       -0.0016643038        0.0028100840
Ti        -0.0036273384        0.0013668712        0.0041548405
Ti        -0.0022016579       -0.0096858113        0.0013486767
Ti         0.0037068299        0.0009319963        0.0020215102
Ti        -0.0046129423        0.0050588118       -0.0008858988
O        -0.0008450064        0.0030252049        0.0029588558
O         0.0028871651       -0.0027225331        0.0043369459
O        -0.0044308506        0.0004778247        0.0038810843
O         0.0018829616        0.0020474783        0.0014412361
O         0.0021246046        0.0001677542       -0.0028698296
O         0.0013846946       -0.0036540771        0.0028606240
O         0.0030420700       -0.0018459838        0.0035578674
O         0.0048422156        0.0005814434       -0.0006587644
O         0.0030510417       -0.0056499096       -0.0012551588
O        -0.0026863988       -0.0040824145       -0.0010944130
O         0.0016199503        0.0002476470        0.0028779294
O         0.0028686639       -0.0010035722       -0.0009634086
O        -0.0038078937       -0.0013567038        0.0025167696
O        -0.0021379228       -0.0023375139       -0.0030801078
O         0.0034751452       -0.0051436486        0.0008243129
O         0.0035221751       -0.0010873997        0.0016263200
O         0.0005735447        0.0012347998       -0.0007133532
O         0.0036998901       -0.0009209474       -0.0024863362
O        -0.0030460248        0.0014785170        0.0009254812
O         0.0042380421        0.0039016796        0.0029956765
O         0.0014377144        0.0011419688        0.0033891172
O         0.0037227870       -0.0021981409        0.0053218079