     192
 i =       11, E =     -5767.6747641619
Ti         0.0000847338        0.0000802730        0.0000029162
Ti        -0.0000406969       -0.0000449376        0.0000011175
Ti         0.0001071897       -0.0000051424        0.0000557202
Ti        -0.0000138491        0.0001000748       -0.0000477296
Ti         0.0000446205       -0.0000923883       -0.0000129740
Ti        -0.0000184460       -0.0000933361        0.0000617506
Ti         0.0000537308       -0.0000473068        0.0000059802
Ti         0.0001599750        0.0000530845       -0.0002409361
Ti         0.0000215023       -0.0001169423       -0.0000408959
Ti         0.0000818935       -0.0000876532        0.0000025052
Ti         0.0001798102       -0.0000090157        0.0001744004
Ti         0.0000288020        0.0001025171        0.0000565488
Ti        -0.0000943819        0.0000386741        0.0000193625
Ti        -0.0001025356       -0.0000178219       -0.0000450798
Ti        -0.0000850525        0.0000932927       -0.0000005349
Ti        -0.0001113355        0.0000171689        0.0000520523
Ti        -0.0000191723        0.0001772671       -0.0001808771
Ti         0.0001163589        0.0000258578       -0.0000416435
Ti         0.0000582033        0.0001525921        0.0002440232
Ti        -0.0000432772        0.0000584015        0.0000090871
Ti         0.0000715649       -0.0001765081       -0.0002275305
Ti        -0.0000033534        0.0001180365        0.0000637370
Ti        -0.0002023913       -0.0000147168       -0.0001703701
Ti         0.0001025214        0.0000387649       -0.0000120084
Ti        -0.0000019784       -0.0001936630        0.0001781382
Ti         0.0000381002        0.0001044312        0.0000087437
Ti         0.0001198520        0.0000043789       -0.0000565167
Ti        -0.0001798163        0.0000570683        0.0002370042
Ti        -0.0000627283       -0.0000624667       -0.0000040353
Ti        -0.0000838886       -0.0000739047       -0.0000008576
Ti         0.0000135874        0.0001849919        0.0001885639
Ti         0.0001824557        0.0000201835       -0.0001710656
Ti        -0.0000352989       -0.0000997231        0.0000160689
Ti        -0.0000912017       -0.0000291364       -0.0000155802
Ti         0.0001147913        0.0001019655        0.0000029388
Ti         0.0000474871        0.0000485973       -0.0000007692
Ti         0.0000227427       -0.0000904821       -0.0000447134
Ti         0.0000912822       -0.0000846325       -0.0002139597
Ti        -0.0001143006       -0.0000004708       -0.0000468352
Ti        -0.0000510860        0.0001576925       -0.0002388129
Ti         0.0001631345       -0.0000405880        0.0002394844
Ti         0.0000060218       -0.0001177263        0.0000496229
Ti        -0.0001033753        0.0000193583        0.0000459284
Ti        -0.0000911660        0.0001020166        0.0002119092
Ti        -0.0000913618       -0.0001290478       -0.0002067393
Ti        -0.0000412997        0.0000991310       -0.0000062674
Ti        -0.0001217259        0.0001149224        0.0000027725
Ti         0.0001209297       -0.0000063662        0.0000618926
Ti        -0.0000582927       -0.0001750749        0.0002274594
Ti        -0.0000785589        0.0000669780       -0.0000166460
Ti         0.0001008625        0.0001140901       -0.0002297925
Ti        -0.0002044596        0.0000137672        0.0001696520
Ti        -0.0000083264        0.0001108599       -0.0000542402
Ti         0.0001032007       -0.0001278990       -0.0000025356
Ti         0.0001104946        0.0000921746        0.0002357656
Ti         0.0000067075       -0.0001872886       -0.0001684364
Ti         0.0000798712       -0.0000648971        0.0000003809
Ti        -0.0001734984       -0.0000366545       -0.0002262536
Ti        -0.0001420454       -0.0000853506        0.0002130294
Ti         0.0001023306       -0.0000187299        0.0000043753
Ti        -0.0001280005       -0.0001251044        0.0000093032
Ti         0.0000896228        0.0000569267       -0.0000044744
Ti        -0.0001024362        0.0000811570       -0.0002259682
Ti         0.0001034021       -0.0001170715        0.0002147898
O        -0.0000120208        0.0000384453       -0.0005784859
O         0.0000100300       -0.0000394510       -0.0004302426
O         0.0000454267        0.0000168792       -0.0006214854
O        -0.0000226948       -0.0000093159       -0.0003904930
O         0.0000187933        0.0000476662        0.0006406257
O        -0.0000137726       -0.0000231190        0.0004054586
O        -0.0000369097        0.0000024361        0.0004394707
O         0.0000296699       -0.0000173279        0.0006043082
O        -0.0000255663        0.0000312497       -0.0007763020
O         0.0000147847       -0.0000483425       -0.0006154147
O         0.0000455150        0.0000225398       -0.0004260155
O         0.0002704077       -0.0000217461       -0.0002437584
O         0.0000170823        0.0000157585        0.0008415929
O        -0.0000255783       -0.0000333744        0.0006075503
O         0.0002798587        0.0000127707        0.0003122120
O         0.0000213546       -0.0000163007        0.0004037359
O         0.0000326605       -0.0000116589        0.0007952896
O        -0.0000443600        0.0000090335        0.0006427568
O        -0.0000343788       -0.0000143070       -0.0005837159
O         0.0000142234        0.0000118070       -0.0008346736
O         0.0000005310        0.0002801076       -0.0003066062
O        -0.0000132147        0.0000271895       -0.0003837711
O        -0.0000309079        0.0002672084        0.0002514227
O         0.0000268676        0.0000385646        0.0004398357
O        -0.0000224427       -0.0002533429       -0.0002443328
O         0.0000121900        0.0000003549       -0.0008392626
O        -0.0002658146        0.0000140080       -0.0003079012
O        -0.0000149505       -0.0000164579       -0.0007934174
O         0.0000258262       -0.0002611733        0.0003162529
O        -0.0000345754       -0.0000159278        0.0008115913
O         0.0000025504        0.0000152857        0.0008557303
O        -0.0002506707       -0.0000108230        0.0002584824
O         0.0000156477       -0.0000184241       -0.0005813287
O         0.0000238709       -0.0000210691       -0.0003894906
O         0.0000028605       -0.0000251424       -0.0006386810
O        -0.0000372101       -0.0000176111       -0.0004231732
O         0.0000212537        0.0000379931        0.0006004395
O         0.0000199221       -0.0000012901        0.0004572792
O         0.0000001150       -0.0000142354        0.0005273256
O         0.0000411694       -0.0000115959        0.0006460126
O        -0.0000223629       -0.0000416133        0.0004347716
O        -0.0000273244        0.0000004456        0.0006540552
O        -0.0000125023       -0.0000015523       -0.0005169843
O        -0.0000132761        0.0000533285       -0.0006172135
O        -0.0000023096        0.0000171488       -0.0004504545
O         0.0000421251        0.0000135571       -0.0005749580
O        -0.0000196602        0.0000306868        0.0005897506
O        -0.0000223734        0.0000245046        0.0004034914
O         0.0000206907        0.0000583588       -0.0007577188
O         0.0000270343       -0.0000393053       -0.0005795414
O         0.0000073467       -0.0000241979       -0.0005111069
O         0.0002783997       -0.0000104184       -0.0002965177
O         0.0000191952        0.0000248008        0.0007958305
O         0.0000283774        0.0000235710        0.0005883327
O         0.0002131726       -0.0000317201        0.0003629185
O         0.0000445601       -0.0000069269        0.0004371724
O        -0.0000119752       -0.0000482527        0.0006328766
O        -0.0000298506        0.0000451937        0.0008354331
O         0.0000087968       -0.0000128628        0.0008462933
O         0.0000045321       -0.0000250956        0.0006546812
O        -0.0000301325        0.0000007243       -0.0006400987
O        -0.0000077161        0.0000135756       -0.0008263171
O        -0.0000403971       -0.0000098465       -0.0006204700
O         0.0000484673       -0.0000231932       -0.0008318348
O        -0.0000231195        0.0002173840       -0.0003530528
O        -0.0000112246        0.0000417741       -0.0004209557
O         0.0000227448        0.0000261024       -0.0005701963
O         0.0000282384        0.0000116159       -0.0007783061
O        -0.0000105864        0.0002795763        0.0003089662
O        -0.0000173461        0.0000098713        0.0005186032
O         0.0000589847        0.0000200783        0.0007660954
O        -0.0000350923        0.0000169417        0.0006018241
O         0.0000196129        0.0000302850        0.0004053947
O         0.0000162747        0.0002112326        0.0002732442
O         0.0002650514        0.0000096489        0.0002493947
O         0.0000047445        0.0000265171        0.0004586025
O         0.0000325634        0.0000015612       -0.0004426030
O         0.0000304042        0.0002670054       -0.0002361128
O         0.0000266722        0.0000065145       -0.0003861373
O         0.0002157465        0.0000152333       -0.0002645499
O         0.0000275226       -0.0001982120       -0.0002655869
O         0.0000301276       -0.0000131667       -0.0007869664
O        -0.0002099784       -0.0000308521       -0.0003560522
O         0.0000005851       -0.0000026738       -0.0008463411
O         0.0000247057       -0.0002504251        0.0002590107
O         0.0000225654       -0.0000411045        0.0007849547
O        -0.0000364303       -0.0000372312        0.0008504444
O        -0.0002584217       -0.0000073038        0.0003140072
O        -0.0000012225       -0.0000012445        0.0008492983
O        -0.0000352218       -0.0002068079        0.0003666730
O        -0.0000296578       -0.0000352396       -0.0008392307
O         0.0000027726       -0.0002580066       -0.0003082454
O        -0.0000426770        0.0000165389       -0.0007686669
O        -0.0002597495        0.0000097026       -0.0002456618
O        -0.0001947394        0.0000118260        0.0002762322
O        -0.0000147282        0.0000037493        0.0008075303
O         0.0000323522       -0.0000023158       -0.0006399636
O        -0.0000288951       -0.0000039891       -0.0004413327
O        -0.0000153947       -0.0000192364       -0.0005667386
O        -0.0000045618        0.0000234395       -0.0005143420
O        -0.0000225180       -0.0000162796        0.0005871025
O         0.0000314786       -0.0000040361        0.0005212344
O        -0.0000007407       -0.0000239811        0.0004608970
O        -0.0000035500        0.0000292452        0.0006534707
O         0.0000374647        0.0000480070       -0.0008260536
O        -0.0000237909        0.0000148333       -0.0005675348
O        -0.0000012775       -0.0000121679       -0.0004423737
O         0.0002213214        0.0000363564       -0.0003469504
O        -0.0000158118        0.0000564184        0.0007677524
O         0.0000326491        0.0000047241        0.0006499496
O         0.0002092292       -0.0000008219        0.0002668266
O         0.0000029609        0.0000167054        0.0005223907
O         0.0000455921        0.0000335248        0.0008359999
O         0.0000147770       -0.0000241402        0.0005852405
O         0.0000034177        0.0000283766       -0.0006417075
O         0.0000550407       -0.0000104333       -0.0007520165
O        -0.0000200414        0.0002207086       -0.0002584196
O         0.0000170218        0.0000106791       -0.0005068356
O         0.0000460576        0.0002187995        0.0003577972
O        -0.0000257716       -0.0000036536        0.0004526399
O         0.0000225230       -0.0002043549       -0.0003551590
O        -0.0000226033       -0.0000385875       -0.0007619700
O        -0.0002050232        0.0000021330       -0.0002624399
O        -0.0000333781        0.0000229608       -0.0008365841
O        -0.0000215818       -0.0001964681        0.0002770596
O         0.0000296509       -0.0000336570        0.0008473130
O        -0.0000384565       -0.0000040029        0.0007735043
O        -0.0001971730        0.0000274294        0.0003618192
     192
 i =       12, E =     -5767.6750974374
Ti         0.0000723154        0.0000808930       -0.0000016420
Ti        -0.0001037686       -0.0001139647        0.0000103469
Ti         0.0000857839       -0.0000869242        0.0000359577
Ti        -0.0000872407        0.0000901833       -0.0000372443
Ti         0.0000175018        0.0000570202        0.0000963642
Ti        -0.0000771006       -0.0000952834        0.0000299528
Ti         0.0000853785       -0.0000958550        0.0000001255
Ti         0.0003658409        0.0000336573       -0.0001628993
Ti        -0.0000774608        0.0000247470       -0.0001276885
Ti         0.0000780135       -0.0000909656        0.0000088494
Ti         0.0003663690       -0.0000855300        0.0001667830
Ti         0.0000667042        0.0000926457        0.0000334968
Ti         0.0000540621        0.0000334215       -0.0000997307
Ti        -0.0000883333       -0.0000787861       -0.0000244514
Ti        -0.0000726177        0.0000817954        0.0000158114
Ti         0.0000165525       -0.0000786640        0.0001390853
Ti        -0.0000906562        0.0003750214       -0.0001297997
Ti         0.0000735498        0.0000729781       -0.0000174371
Ti         0.0000140596        0.0003692961        0.0001715160
Ti        -0.0000863067        0.0000916766       -0.0000013154
Ti         0.0000163015       -0.0003579854       -0.0001653695
Ti        -0.0000600818       -0.0000217641        0.0001471187
Ti        -0.0003329290       -0.0000824956       -0.0001409047
Ti        -0.0000532136        0.0000407158        0.0001293499
Ti        -0.0000841071       -0.0003503809        0.0001429888
Ti         0.0000270222       -0.0000406170       -0.0001013119
Ti        -0.0000271968       -0.0000645935       -0.0001444364
Ti        -0.0003436734        0.0000335400        0.0001619819
Ti         0.0000606876        0.0000544432       -0.0000089011
Ti        -0.0000811895       -0.0000958092       -0.0000029298
Ti         0.0000916292        0.0003573150        0.0001406445
Ti         0.0003594836        0.0000780273       -0.0001571390
Ti        -0.0000369324        0.0000541852       -0.0000858628
Ti         0.0000550986       -0.0000525192        0.0001156662
Ti         0.0003175674        0.0003176082        0.0000107651
Ti         0.0001044080        0.0001042182        0.0000294668
Ti         0.0000784817       -0.0001112003       -0.0000218568
Ti         0.0003223308        0.0000457595       -0.0002827455
Ti         0.0000345796        0.0000611447       -0.0001373206
Ti        -0.0000287211        0.0003626317       -0.0001711713
Ti         0.0003639645       -0.0000710760        0.0001721995
Ti         0.0000641222        0.0000262171        0.0001368010
Ti        -0.0000821161        0.0000799597        0.0000430600
Ti         0.0000561389        0.0003253452        0.0002894086
Ti         0.0000612270       -0.0002911803       -0.0002908701
Ti        -0.0000363089       -0.0000402583        0.0000944691
Ti        -0.0002948952        0.0003049466        0.0000161457
Ti        -0.0000400925        0.0000729970        0.0001425207
Ti        -0.0000197507       -0.0003629277        0.0001839336
Ti         0.0000713911       -0.0000462471        0.0000001870
Ti        -0.0000623039        0.0003078446       -0.0002853604
Ti        -0.0003566048        0.0000852152        0.0001588305
Ti         0.0000756351       -0.0000055624       -0.0001290430
Ti         0.0003091404       -0.0002912303       -0.0000022479
Ti         0.0003100345       -0.0000244441        0.0002989164
Ti         0.0000936411       -0.0003637510       -0.0001306297
Ti        -0.0000609762        0.0000582919        0.0000231276
Ti        -0.0003615302       -0.0000636120       -0.0001564027
Ti        -0.0002847569        0.0000446282        0.0002785931
Ti        -0.0000539256       -0.0000644053       -0.0001168797
Ti        -0.0003028021       -0.0002963608       -0.0000051398
Ti        -0.0000659820       -0.0000340280       -0.0000095033
Ti        -0.0003195594       -0.0000208501       -0.0002795530
Ti        -0.0000664385       -0.0003152072        0.0002995355
O        -0.0000213209        0.0001485369       -0.0001435352
O         0.0000487445       -0.0000874584        0.0002372985
O         0.0001958579        0.0000512627       -0.0001760516
O        -0.0001080247       -0.0000228950        0.0002326045
O         0.0000422488        0.0001667604        0.0002341571
O        -0.0000049656       -0.0000876681       -0.0001939228
O        -0.0000995704        0.0000798890       -0.0002053962
O         0.0001626074       -0.0000082101        0.0002146940
O         0.0000370456       -0.0001154717       -0.0002984266
O         0.0000394879       -0.0001714087       -0.0001633601
O         0.0000931313        0.0000279971        0.0002419712
O         0.0002984013        0.0000296880        0.0002600389
O         0.0000474861       -0.0001128440        0.0002772519
O         0.0000105834       -0.0001606410        0.0002215013
O         0.0002857451        0.0000431244       -0.0002472064
O         0.0001232001        0.0000007966       -0.0002045701
O        -0.0001131581        0.0000041906        0.0003213069
O        -0.0001843063        0.0000505269        0.0002257441
O        -0.0001651455       -0.0000060792       -0.0001531823
O        -0.0001062273        0.0000508368       -0.0002686771
O         0.0000686678        0.0002900393        0.0002623569
O         0.0000088570        0.0001064997        0.0002374079
O         0.0000600530        0.0002912825       -0.0002289764
O         0.0000181390        0.0001031261       -0.0001928116
O         0.0000399041       -0.0003009947        0.0002656859
O         0.0000273506        0.0001049243       -0.0002760085
O        -0.0002937831        0.0000396721        0.0002566700
O         0.0001099845       -0.0000035138       -0.0003131115
O         0.0000218008       -0.0002866662       -0.0002279514
O         0.0000428274        0.0001207740        0.0003365795
O         0.0001141095        0.0000363489        0.0002988992
O        -0.0002961206        0.0000009424       -0.0002317402
O        -0.0000128334        0.0001270623       -0.0001261150
O        -0.0000117007       -0.0001043071        0.0002287124
O         0.0001565103       -0.0000559419       -0.0001705102
O        -0.0001030891       -0.0000335563        0.0002503142
O        -0.0000096099        0.0001596363        0.0002130882
O        -0.0000236655       -0.0001059857       -0.0001283631
O        -0.0001190617       -0.0000645982       -0.0001497036
O         0.0002052319       -0.0000433934        0.0002313801
O        -0.0000238482       -0.0000848951       -0.0001982779
O        -0.0000493147        0.0001380918        0.0001968616
O        -0.0000653166       -0.0001065534        0.0001589667
O        -0.0000436828        0.0001625447       -0.0001773047
O        -0.0001003808       -0.0000237868        0.0001524996
O         0.0001512949        0.0000123286       -0.0001473055
O         0.0001352594       -0.0000488557        0.0001671115
O        -0.0001003892       -0.0000100123       -0.0001969604
O        -0.0000438208       -0.0000862767       -0.0003868996
O        -0.0000082813       -0.0001523743       -0.0001501372
O         0.0001001632       -0.0000360507        0.0001787550
O         0.0002972820       -0.0000433733        0.0002644496
O        -0.0000109916       -0.0001116660        0.0003242571
O        -0.0000449971       -0.0001330566        0.0001648408
O         0.0002521703       -0.0000559416       -0.0002029868
O         0.0000985662       -0.0000643759       -0.0002159961
O        -0.0000426956       -0.0001629676        0.0002263333
O        -0.0000637910       -0.0000759068        0.0004199537
O        -0.0001079327       -0.0000336770        0.0002857961
O        -0.0001512146       -0.0000540006        0.0002099123
O        -0.0000451476       -0.0001337838       -0.0001722682
O        -0.0000333490       -0.0001188707       -0.0002655242
O        -0.0002047799       -0.0000454392       -0.0001697547
O        -0.0000875783       -0.0000720527       -0.0003983683
O        -0.0000496859        0.0002335128        0.0002131999
O        -0.0000408816        0.0000899871        0.0002259097
O        -0.0001487845       -0.0000515372       -0.0001270387
O        -0.0000998597        0.0000144056       -0.0002987352
O        -0.0000516344        0.0002960285       -0.0002413405
O        -0.0000602143        0.0000897921       -0.0001380096
O        -0.0000972375       -0.0000355978        0.0004131885
O        -0.0001514245        0.0000226628        0.0002178805
O        -0.0000097352        0.0000889459       -0.0001903533
O        -0.0000365212        0.0002438522       -0.0001757378
O         0.0002918112        0.0000280834       -0.0002269102
O         0.0001143854       -0.0000405799       -0.0001324872
O        -0.0000722719        0.0001100519        0.0001533449
O        -0.0000407143        0.0002992723        0.0002583525
O         0.0001037455        0.0000326910        0.0002411408
O         0.0002421286       -0.0000236773        0.0001924598
O        -0.0000463545       -0.0002537161        0.0001945407
O        -0.0000371931        0.0001185185       -0.0003053352
O        -0.0002503465       -0.0000374183        0.0002091474
O         0.0001172614       -0.0000647184       -0.0002753629
O        -0.0000450158       -0.0002975424       -0.0002296688
O        -0.0000550414        0.0000892991        0.0004273760
O         0.0001015536       -0.0000285429        0.0004294287
O        -0.0002967863       -0.0000537708       -0.0002420177
O        -0.0000716020        0.0001139639        0.0002988174
O        -0.0000305473       -0.0002391101       -0.0002049769
O        -0.0000486467        0.0000890724       -0.0004036573
O        -0.0000857767       -0.0002911314        0.0002574066
O         0.0001068264       -0.0000303861       -0.0003846937
O        -0.0002954173        0.0000213947        0.0002531366
O        -0.0002579723       -0.0000175707       -0.0001854466
O         0.0001120310        0.0000358454        0.0003269268
O         0.0000482912        0.0001444284       -0.0001684081
O         0.0000583239       -0.0001039053        0.0001499254
O         0.0001425966        0.0000402925       -0.0001160236
O        -0.0001173475        0.0000535803        0.0001780454
O         0.0000434059        0.0001242770        0.0001595909
O         0.0000356530       -0.0001082246       -0.0001458280
O        -0.0001109546        0.0000347832       -0.0001294711
O         0.0001644960        0.0000539269        0.0002019581
O         0.0000306593       -0.0000848296       -0.0003961686
O         0.0000381253       -0.0001174135       -0.0001320728
O         0.0001043124        0.0000171029        0.0001551340
O         0.0002458201        0.0000277747        0.0002134210
O         0.0000423251       -0.0000907560        0.0004063959
O         0.0000489055       -0.0001356714        0.0001986885
O         0.0002468383        0.0000013331       -0.0001847021
O         0.0001074138        0.0000679350       -0.0001519834
O        -0.0000875521        0.0000419271        0.0004252548
O        -0.0001288124        0.0000415703        0.0001738393
O        -0.0001572993        0.0000517095       -0.0001697406
O        -0.0000918578        0.0000292683       -0.0003749281
O         0.0000423842        0.0002464177        0.0001973878
O         0.0000641844        0.0000953146        0.0001638168
O         0.0000216875        0.0002390703       -0.0002021442
O         0.0000542637        0.0001150572       -0.0001229662
O         0.0000570406       -0.0002395887        0.0002208589
O         0.0000603277        0.0000776004       -0.0003929030
O        -0.0002345797       -0.0000107564        0.0001971016
O         0.0001036384        0.0000804656       -0.0004115762
O         0.0000500490       -0.0002379480       -0.0001760558
O         0.0000793581        0.0000845566        0.0004248629
O         0.0000972157       -0.0000025107        0.0004203466
O        -0.0002486416        0.0000562091       -0.0001923786
     192
 i =       13, E =     -5767.6751622687
Ti         0.0001889088        0.0001878009        0.0000048392
Ti        -0.0001080976       -0.0000893152        0.0000071930
Ti         0.0002025859       -0.0000756314        0.0000662293
Ti        -0.0000879938        0.0001881714       -0.0000475546
Ti         0.0001967362       -0.0000630521        0.0000922546
Ti        -0.0000902531       -0.0001981010        0.0000678538
Ti         0.0001057870       -0.0001137234        0.0000159103
Ti         0.0003428694        0.0001854776       -0.0001581926
Ti        -0.0000885793       -0.0000852441       -0.0000608885
Ti         0.0001937099       -0.0001932456        0.0000051145
Ti         0.0003352681       -0.0001105281        0.0001659364
Ti         0.0000868294        0.0001938194        0.0000657946
Ti        -0.0000565400        0.0001843529       -0.0000623630
Ti        -0.0002086638       -0.0000898065       -0.0000397746
Ti        -0.0001997224        0.0001957578        0.0000082997
Ti        -0.0000817706       -0.0000875774        0.0000794411
Ti        -0.0001083458        0.0003305014       -0.0001628318
Ti         0.0002104732        0.0000869735       -0.0000390047
Ti         0.0002112462        0.0003347159        0.0001711279
Ti        -0.0001188507        0.0001121578        0.0000162633
Ti         0.0002043465       -0.0003358736       -0.0001513696
Ti        -0.0001041958        0.0000770420        0.0000841534
Ti        -0.0003420411       -0.0001126763       -0.0001519827
Ti         0.0000684690        0.0001741092        0.0000739087
Ti        -0.0001165693       -0.0003315975        0.0001753342
Ti         0.0002021605        0.0000627585       -0.0000663002
Ti         0.0000990989       -0.0000986385       -0.0000676469
Ti        -0.0003409935        0.0001796671        0.0001714349
Ti        -0.0000658223       -0.0000539621        0.0000074349
Ti        -0.0001975987       -0.0001890489        0.0000117145
Ti         0.0000955900        0.0003430409        0.0001810005
Ti         0.0003445714        0.0001022355       -0.0001522958
Ti        -0.0001990906       -0.0000662601       -0.0000695187
Ti        -0.0000664848       -0.0001737463        0.0000763781
Ti         0.0003430719        0.0003275476        0.0000039796
Ti         0.0001057814        0.0000989101        0.0000098238
Ti         0.0000904248       -0.0001816205       -0.0000452455
Ti         0.0003309293       -0.0000508533       -0.0002264904
Ti        -0.0001078899        0.0000972612       -0.0000583853
Ti        -0.0001997985        0.0003442735       -0.0001500164
Ti         0.0003396239       -0.0001575434        0.0001704809
Ti         0.0000994466       -0.0000898853        0.0000773931
Ti        -0.0002133053        0.0000787553        0.0000598601
Ti        -0.0000614183        0.0003224823        0.0002257424
Ti        -0.0000603004       -0.0003364672       -0.0002253684
Ti        -0.0001974294        0.0000620655        0.0000919629
Ti        -0.0003457841        0.0003377192        0.0000132247
Ti         0.0001028163        0.0000859362        0.0000877394
Ti        -0.0002030635       -0.0003318895        0.0001595582
Ti        -0.0000710223        0.0000539784       -0.0000123135
Ti         0.0000674233        0.0003430918       -0.0002276420
Ti        -0.0003232312        0.0000983831        0.0001647267
Ti         0.0000772607        0.0000739732       -0.0000613785
Ti         0.0003511571       -0.0003377347        0.0000149722
Ti         0.0003345676        0.0000466777        0.0002539777
Ti         0.0000866181       -0.0003220532       -0.0001572059
Ti         0.0000697909       -0.0000590989       -0.0000030307
Ti        -0.0003382086       -0.0001567501       -0.0001552761
Ti        -0.0003379483       -0.0000526203        0.0002467266
Ti         0.0000712562       -0.0001670618       -0.0000623531
Ti        -0.0003307368       -0.0003272569        0.0000055080
Ti         0.0000753842        0.0000371778        0.0000091993
Ti        -0.0003175613        0.0000374557       -0.0002362692
Ti         0.0000702021       -0.0003124949        0.0002359208
O        -0.0000702839        0.0001807667       -0.0000276648
O        -0.0000155858       -0.0000707244        0.0003415380
O         0.0001731796       -0.0000281746       -0.0000299526
O        -0.0000920169       -0.0000696044        0.0002909920
O        -0.0000153811        0.0001780970        0.0001242786
O        -0.0000811297       -0.0001137684       -0.0002289255
O        -0.0000564386       -0.0000437517       -0.0002934042
O         0.0001514404       -0.0000749223        0.0001482932
O        -0.0001241376       -0.0000956339       -0.0001756546
O        -0.0000054869       -0.0001802995       -0.0000227129
O         0.0000548622       -0.0000110947        0.0003418645
O         0.0003234800       -0.0001125434        0.0003138035
O        -0.0000180038       -0.0000915670        0.0000830233
O        -0.0000937697       -0.0001758066        0.0001600344
O         0.0003122627       -0.0000012353       -0.0003296406
O         0.0000954022       -0.0000848189       -0.0002262759
O        -0.0001043741       -0.0000964175        0.0002016533
O        -0.0001646465       -0.0000090040        0.0001199033
O        -0.0001532075       -0.0000857175       -0.0000404409
O        -0.0000971419       -0.0000233502       -0.0000515433
O        -0.0000130589        0.0003159154        0.0003615056
O        -0.0001050868        0.0000984788        0.0002953823