     192
 i =       11, E =     -5767.6747641619
Ti         0.0020535653        0.0020382896        0.0001288538
Ti         1.8860409344        1.8860381973        4.8075702605
Ti         0.0019602638        1.8861160729        2.3993547911
Ti         1.8861330331        0.0020062408        7.2158709236
Ti         0.0021348231        3.7760684939        0.0017220026
Ti         1.8861612189       13.2363047533        4.8031666154
Ti        11.3522654825        1.8860324648        2.4038119438
Ti         5.6671029006        0.0021575959        7.2201393583
Ti         1.8861122294        3.7759584929        7.2135543000
Ti         0.0020553987       13.2362904234        2.4038835426
Ti         5.6670199699        1.8858632049        4.8024551354
Ti        11.3521474362        0.0019817903       -0.0044239568
Ti         3.7760856438        0.0021219067       -0.0015744689
Ti        13.2363214643        1.8861516589        4.8120562084
Ti        13.2362934659        0.0020192018        7.2113882747
Ti         3.7759401192        1.8861335590        2.4015163080
Ti         1.8858949423        5.6670182096        4.8126312784
Ti         0.0019407369       11.3521610734        0.0046175789
Ti         0.0021433302        5.6671360755        2.3949993577
Ti         1.8860300698       11.3522400463        7.2114427077
Ti         0.0021192799        7.5712038978        0.0088492034
Ti         1.8861986774        9.4623293843        4.8053427061
Ti         7.5713077988        1.8858715718        2.4088211704
Ti         9.4621696180        0.0021549534        7.2129700250
Ti         1.8858478718        7.5712846618        7.2063059768
Ti         0.0021526896        9.4621371319        2.4022304941
Ti         9.4623008199        1.8861595936        4.8098235132
Ti         7.5711800434        0.0021370680       -0.0087436278
Ti         3.7760827644        3.7760762847        0.0000478101
Ti        13.2362531302       13.2362551568        4.8076340153
Ti        11.3524496325        5.6670016509        2.3987213919
Ti         5.6669988485       11.3524428436        7.2164170598
Ti        13.2361693641        3.7760938184        7.2097490851
Ti         3.7760549017       13.2361653723        2.4054120364
Ti         5.6670739027        5.6671130243        4.8075226316
Ti        11.3522614304       11.3522696587        0.0000259104
Ti        11.3521589142       13.2362981890        2.4082880843
Ti         5.6672181954        3.7758423545        7.2176059942
Ti         3.7759680210       11.3521383738        0.0023586025
Ti        13.2361411392        5.6671228080        4.8163936890
Ti         5.6671207667       13.2361331280        4.7987537341
Ti        11.3521179025        3.7759556263       -0.0021764812
Ti        13.2363547121       11.3521671335        7.2069221119
Ti         3.7758545829        5.6671800783        2.3974978096
Ti         3.7758525083        7.5711409728        0.0063456626
Ti        13.2361788408        9.4621658071        4.8092460236
Ti         7.5712277428        5.6670799302        2.4037422832
Ti         9.4623018352       11.3521479276        7.2090839427
Ti        13.2361716646        7.5711920461        7.2025787227
Ti         3.7761109187        9.4621737811        2.4038299284
Ti         9.4623919147        5.6671531526        4.8138598713
Ti         7.5713228896       11.3524491464       -0.0050106794
Ti        11.3521608907        9.4623123863        2.4060482845
Ti         5.6670793011        7.5712279789        7.2113523036
Ti         5.6671873868        9.4623907011        4.8012418221
Ti        11.3524555892        7.5712777518        0.0050760814
Ti         9.4621491473        3.7760683486        7.2113696653
Ti         7.5711997274       13.2361195572        2.4125492977
Ti         7.5711600636        3.7758457480       -0.0062182656
Ti         9.4621739265       13.2361556226        4.8059946433
Ti         7.5712300009        7.5712236889        0.0000260043
Ti         9.4621160455        9.4622053251        4.8075790620
Ti         7.5710641002        9.4624131670        2.4100432857
Ti         9.4623831735        7.5710875104        7.2050527535
O        -0.0003090326        0.0027456916        1.9769250571
O         1.8851046569        1.8854473796        6.7899798979
O         0.0027157170        1.8851835757        4.3799922165
O         1.8856193932       -0.0002323369        9.1943726457
O         1.8851942088        0.0027153816        5.2352422163
O        -0.0002325457        1.8856013583        0.4208527826
O         1.8854089259        1.8851257854        2.8251655617
O         0.0027645499       -0.0002844895        7.6383491408
O        -0.0001186798        3.7742879108        1.9653850898
O         1.8852198287       13.2355923149        6.7838426898
O        11.3528707438        1.8850462820        4.3861605174
O         5.6740029284       -0.0000236236        9.1931019511
O         1.8850671262        3.7740999226        5.2467413782
O        -0.0002382638       13.2355877932        0.4271160668
O         5.6739890564        1.8848759358        2.8260537543
O        11.3526944801       -0.0002201458        7.6321203453
O         3.7742688127       -0.0001834149        7.6498556057
O        13.2355816612        1.8852590975        2.8314437467
O        13.2355709992       -0.0003201017        9.1882141661
O         3.7741063577        1.8851074222        4.3683519707
O         1.8849398450        5.6739734432        6.7890243298
O        -0.0002628628       11.3526791486        1.9831058146
O         0.0000033092        5.6740050384        0.4220463652
O         1.8850268149       11.3528681173        5.2291143595
O        -0.0000381760        7.5642672374        1.9818773921
O         1.8851374795        9.4641194861        6.7723766905
O         7.5643063215        1.8848780261        4.3852961904
O         9.4639422478       -0.0001352667        9.1767356358
O         1.8848125598        7.5643250798        5.2298075509
O        -0.0000636248        9.4639493745        0.4385350739
O         9.4641460606        1.8851011906        2.8428728558
O         7.5642624829       -0.0000750438        7.6332096491
O         3.7695665719        0.0026306647        1.9791262896
O        13.2385211831        1.8856036238        6.7906104771
O         0.0025773477        5.6531253266        4.3822742887
O         1.8853949132       11.3533275077        9.1938794245
O        13.2386243291        0.0027346847        5.2345708578
O         3.7694013979        1.8858099815        0.4196392027
O         1.8855090990        5.6530929350        2.8242354932
O         0.0027302806       11.3531540917        7.6390630946
O        11.3533565395        1.8854287109        0.4214020312
O         5.6531229056        0.0025574748        5.2328566508
O         5.6530798686        1.8855044197        6.7908617461
O        11.3531741401        0.0027050162        1.9762543388
O         1.8857962500        3.7694205565        9.1954365584
O         0.0027501339       13.2386618587        4.3807111752
O         0.0026165723        3.7695018263        7.6360275723
O         1.8856076348       13.2385077770        2.8246514939
O         3.7695226232        3.7743266098        1.9688460263
O        13.2385798015       13.2355813372        6.7843897261
O        11.3527827772        5.6531228841        4.3870273852
O         5.6740138598       11.3535098535        9.1927992706
O        13.2384932884        3.7743021329        5.2461632369
O         3.7695053527       13.2356740099        0.4246886701
O         5.6736194594        5.6534437494        2.8250792207
O        11.3528885235       11.3532868258        7.6327363193
O        11.3531497247       13.2356095592        0.4276686605
O         5.6534355286        3.7741030503        5.2434123087
O         3.7740962907       11.3532690420        7.6506241350
O        13.2357464220        5.6531081953        2.8291767920
O         5.6531257956       13.2357538947        6.7860480211
O        11.3532262408        3.7741006283        1.9646420031
O        13.2355773395       11.3531519593        9.1875577987
O         3.7741027276        5.6533805026        4.3716569829
O         5.6533471363        5.6736136382        6.7900049140
O        11.3532936020       11.3528659506        1.9823756318
O        13.2356771329        3.7695380497        9.1904922390
O         3.7742859522       13.2385178126        4.3690572061
O        11.3535215173        5.6739673603        0.4223724937
O         5.6531062912       11.3527949735        5.2281234728
O         3.7743530867        3.7695194545        7.6462241936
O        13.2355823613       13.2386161010        2.8308564855
O        13.2385665393       11.3526687093        5.2284471413
O         3.7693201898        5.6736135277        0.4209222989
O         5.6739909817       13.2383922082        2.8257642310
O        11.3524805668        3.7693781205        7.6310378423
O         3.7693735035       11.3525106096        1.9841002602
O        13.2383189528        5.6740060377        6.7893282703
O        11.3526803208       13.2385941158        4.3867627278
O         5.6736319124        3.7692952130        9.1941770536
O         3.7692291334        7.5646622553        1.9829154955
O        13.2384390767        9.4639509481        6.7729898493
O         7.5646536517        5.6533909081        4.3862629049
O         9.4641564525       11.3532298342        9.1760390040
O        13.2383739052        7.5642767935        5.2295473683
O         3.7695364693        9.4638968003        0.4349255411
O         9.4641551396        5.6534199345        2.8395712982
O         7.5642814159       11.3534987443        7.6335626843
O        11.3532406745        9.4641242433        0.4390659640
O         5.6534158199        7.5646652737        5.2288743486
O         5.6533958063        9.4641570391        6.7755741264
O        11.3534613081        7.5643048947        1.9816239831
O         9.4638942191        3.7695399533        9.1802589516
O         7.5642762273       13.2383990488        4.3856105064
O         7.5646792989        3.7693213647        7.6322416280
O         9.4639659699       13.2385389158        2.8422763729
O         7.5851786257        0.0025582282        1.9785232575
O         9.4689720583        1.8858064875        6.7916189138
O         0.0026582943        9.4687610725        4.3829334945
O         1.8854951417        7.5851844950        9.1946709175
O         9.4687820486        0.0026256688        5.2322630981
O         7.5851432216        1.8854937657        0.4205005810
O         1.8858345140        9.4689721386        2.8234931852
O         0.0025780897        7.5851927474        7.6366817580
O         7.5849122856        3.7740966519        1.9678990483
O         9.4688184410       13.2356944541        6.7866618449
O        11.3524796784        9.4689015859        4.3878814884
O         5.6736319338        7.5849148163        9.1937781357
O         9.4687746745        3.7743375974        5.2426588654
O         7.5851825195       13.2357476001        0.4253487234
O         5.6735928218        9.4689512145        2.8247815519
O        11.3527889106        7.5852125029        7.6317915658
O         3.7740955552        7.5849160792        7.6472499436
O        13.2357035751        9.4688016182        2.8285702303
O        13.2357340844        7.5852037344        9.1897562040
O         3.7743785510        9.4687606374        4.3725572226
O         9.4690572363        5.6735931565        6.7903461362
O         7.5852268292       11.3527942357        1.9832188172
O         7.5848343123        5.6736278237        0.4213621202
O         9.4689330007       11.3525021221        5.2273371851
O         7.5849986047        7.5646606299        1.9825149339
O         9.4688072395        9.4638796887        6.7764875722
O         7.5646163143        9.4689546345        4.3865888674
O         9.4641620703        7.5849402616        9.1793696238
O         9.4690450778        7.5646662019        5.2283992279
O         7.5848774772        9.4641556475        0.4357945871
O         9.4638588243        9.4687704532        2.8386404864
O         7.5646420931        7.5849421431        7.6325710201
     192
 i =       12, E =     -5767.6750974374
Ti         0.0021079391        0.0020648707        0.0002701842
Ti         1.8862682093        1.8862535485        4.8076255670
Ti         0.0020581370        1.8865645097        2.3987495775
Ti         1.8865204029        0.0020784428        7.2167134317
Ti         0.0022562282        3.7761655655        0.0007573202
Ti         1.8865702241       13.2363328354        4.8026050592
Ti        11.3521721722        1.8862671297        2.4039078621
Ti         5.6669411445        0.0022616003        7.2202194682
Ti         1.8866054017        3.7759195182        7.2150629514
Ti         0.0020952523       13.2363175362        2.4040584791
Ti         5.6668631053        1.8862165895        4.8028755337
Ti        11.3518591834        0.0020232286       -0.0050347216
Ti         3.7761970314        0.0022062743       -0.0004507182
Ti        13.2363162316        1.8865428328        4.8128976674
Ti        13.2362787719        0.0020911757        7.2114635849
Ti         3.7759284308        1.8866295598        2.4001147157
Ti         1.8862294987        5.6668532153        4.8122555853
Ti         0.0020797842       11.3518632025        0.0055248198
Ti         0.0022629615        5.6669454177        2.3950563797
Ti         1.8861987901       11.3521364043        7.2115863898
Ti         0.0022801265        7.5714148462        0.0090029367
Ti         1.8865989361        9.4624465440        4.8040266527
Ti         7.5714810644        1.8862180729        2.4084852252
Ti         9.4621526743        0.0022040814        7.2119490718
Ti         1.8862033062        7.5714744007        7.2067607437
Ti         0.0021879429        9.4621162360        2.4034174101
Ti         9.4624141962        1.8866186381        4.8113370032
Ti         7.5713822909        0.0022465589       -0.0087339909
Ti         3.7762460781        3.7762331027        0.0000768337
Ti        13.2362743514       13.2363316360        4.8077366479
Ti        11.3521778383        5.6668803319        2.3992343726
Ti         5.6668464712       11.3521861041        7.2160953901
Ti        13.2361997655        3.7761807822        7.2109060757
Ti         3.7761525716       13.2362128061        2.4044165881
Ti         5.6668450149        5.6668271691        4.8075732469
Ti        11.3521429657       11.3521314255        0.0000814365
Ti        11.3518443600       13.2363442012        2.4091127662
Ti         5.6669780227        3.7758987853        7.2185890585
Ti         3.7759490512       11.3517831950        0.0039230250
Ti        13.2361283833        5.6669228860        4.8165313545
Ti         5.6669340511       13.2361809039        4.7987614182
Ti        11.3517686458        3.7759131694       -0.0035366872
Ti        13.2363507115       11.3518441919        7.2062537304
Ti         3.7758924491        5.6669420323        2.3965760166
Ti         3.7758990717        7.5713505813        0.0074034101
Ti        13.2361471209        9.4621701602        4.8082855100
Ti         7.5714710605        5.6668485929        2.4037954622
Ti         9.4624473791       11.3517564212        7.2076880098
Ti        13.2361205504        7.5713939878        7.2025511420
Ti         3.7762100956        9.4620778669        2.4038867680
Ti         9.4624532821        5.6669638671        4.8148347052
Ti         7.5714744814       11.3521884061       -0.0045659253
Ti        11.3517855571        9.4624121154        2.4075328064
Ti         5.6668430505        7.5714690767        7.2114161473
Ti         5.6669787540        9.4624232649        4.8003785768
Ti        11.3521656490        7.5714896971        0.0047424330
Ti         9.4621182581        3.7762508492        7.2113836627
Ti         7.5714245574       13.2361588038        2.4127005145
Ti         7.5713255148        3.7759049438       -0.0071383553
Ti         9.4621514466       13.2362042827        4.8071471877
Ti         7.5714750999        7.5714822168        0.0000981553
Ti         9.4620953678        9.4620781708        4.8076146459
Ti         7.5713699130        9.4624238712        2.4110365743
Ti         9.4624669627        7.5713739009        7.2041252628
O        -0.0004502728        0.0030085520        1.9735570354
O         1.8852884075        1.8853880748        6.7874793333
O         0.0028859536        1.8854525245        4.3759663157
O         1.8856975752       -0.0003320656        9.1925371580
O         1.8854938166        0.0029168675        5.2395284177
O        -0.0003983253        1.8856671079        0.4229171299
O         1.8853860650        1.8851995340        2.8277928090
O         0.0029614852       -0.0004996844        7.6420363272
O        -0.0004349220        3.7745899576        1.9601086562
O         1.8854661310       13.2354861869        6.7798739901
O        11.3530097800        1.8854007067        4.3837116719
O         5.6749223895       -0.0002808520        9.1916516548
O         1.8853349424        3.7742417647        5.2526613976
O        -0.0005652069       13.2354301345        0.4308671614
O         5.6748780830        1.8850945524        2.8281745012
O        11.3526625082       -0.0004213099        7.6341657316
O         3.7745668991       -0.0003074671        7.6553343534
O        13.2355024691        1.8854282769        2.8357462455
O        13.2354197176       -0.0004980818        9.1847618735
O         3.7742492966        1.8853048345        4.3625371533
O         1.8849905754        5.6748587073        6.7869691029
O        -0.0004279586       11.3526842034        1.9813612903
O        -0.0003835942        5.6749135895        0.4236287918
O         1.8854404467       11.3529972108        5.2317942840
O        -0.0003083632        7.5634378065        1.9804851072
O         1.8853485073        9.4640895569        6.7666054221
O         7.5635090944        1.8851156739        4.3832614960
O         9.4637640541       -0.0003193143        9.1713492035
O         1.8852109225        7.5635271095        5.2319558702
O        -0.0005007869        9.4637563476        0.4441409077
O         9.4641094645        1.8853486378        2.8488603751
O         7.5634554511       -0.0001809044        7.6347837199
O         3.7697534228        0.0027901990        1.9761897359
O        13.2388420574        1.8856905358        6.7887861480
O         0.0026880987        5.6525678540        4.3784547589
O         1.8853739600       11.3530529722        9.1914739015
O        13.2389150250        0.0029903500        5.2382067433
O         3.7696558378        1.8860004115        0.4216732301
O         1.8856498356        5.6527060650        2.8272213270
O         0.0028612092       11.3529642127        7.6434224394
O        11.3530188509        1.8853527913        0.4240197142
O         5.6525385174        0.0027075894        5.2368490290
O         5.6527141315        1.8856349171        6.7879728280
O        11.3529640986        0.0029261722        1.9722535250
O         1.8859901515        3.7696378414        9.1935046886
O         0.0030125422       13.2388468304        4.3773766379
O         0.0027641506        3.7698980400        7.6391064427
O         1.8856854053       13.2388350421        2.8267283150
O         3.7697642895        3.7746994166        1.9641297076
O        13.2389450182       13.2354161957        6.7809718060
O        11.3527646019        5.6525881658        4.3842144610
O         5.6748795741       11.3533378700        9.1908242266
O        13.2387396390        3.7745595497        5.2516615450
O         3.7698670370       13.2356519825        0.4277401163
O         5.6743658804        5.6528227925        2.8273009241
O        11.3530377991       11.3531643721        7.6353522010
O        11.3529530612       13.2354751915        0.4319036306
O         5.6528198333        3.7743443687        5.2490909701
O         3.7742064640       11.3530641772        7.6565982066
O        13.2357229981        5.6525555028        2.8332094079
O         5.6524978345       13.2357144286        6.7822017050
O        11.3530881070        3.7742642469        1.9589065677
O        13.2355286501       11.3529872237        9.1835063897
O         3.7743781777        5.6528517596        4.3660440914
O         5.6528321776        5.6743843766        6.7879028553
O        11.3531077059       11.3530089928        1.9799429854
O        13.2356721375        3.7698741307        9.1876452552
O         3.7745530229       13.2386577382        4.3637562753
O        11.3533494750        5.6748618346        0.4245328778
O         5.6526767854       11.3528035118        5.2310886458
O         3.7747342404        3.7697515159        7.6510177076
O        13.2354070256       13.2388397140        2.8345240962
O        13.2388347871       11.3527138864        5.2304524232
O         3.7695109627        5.6743865819        0.4221416660
O         5.6748960860       13.2384927692        2.8272901734
O        11.3524034923        3.7697238602        7.6331071023
O         3.7698100540       11.3524165317        1.9822460866
O        13.2387113061        5.6748981372        6.7879499489
O        11.3526808960       13.2386739942        4.3849516853
O         5.6744083319        3.7694648609        9.1930338918
O         3.7695679504        7.5639296244        1.9818222955
O        13.2388346356        9.4637595380        6.7676534142
O         7.5639567258        5.6527686764        4.3841530648
O         9.4640994321       11.3531683307        9.1701793346
O        13.2386941550        7.5634629947        5.2310970323
O         3.7698095825        9.4636129665        0.4398164081
O         9.4639425808        5.6526991498        2.8453205577
O         7.5635196631       11.3533710018        7.6356991798
O        11.3532034024        9.4640795968        0.4450058090
O         5.6527378660        7.5639337820        5.2311228015
O         5.6527783084        9.4639610567        6.7699718830
O        11.3534759839        7.5635308356        1.9796007582
O         9.4635933294        3.7697256082        9.1754941536
O         7.5634325214       13.2385030610        4.3842105840
O         7.5639856369        3.7694478167        7.6334683032
O         9.4637864765       13.2385651700        2.8478420655
O         7.5858218623        0.0026867162        1.9746734639
O         9.4686005119        1.8859737674        6.7897384343
O         0.0027475808        9.4685277139        4.3801170737
O         1.8856388765        7.5856906500        9.1918076304
O         9.4685055959        0.0027740303        5.2352935365
O         7.5857565920        1.8856202826        0.4234792999
O         1.8859770542        9.4686758017        2.8256011803
O         0.0026670081        7.5857915997        7.6407024570
O         7.5856303444        3.7743711237        1.9623208587
O         9.4685297562       13.2356094523        6.7838122831
O        11.3523774541        9.4687660547        4.3859836230
O         5.6744099902        7.5855996755        9.1917192163
O         9.4686086791        3.7747199342        5.2474415218
O         7.5858311745       13.2357204231        0.4293552212
O         5.6743869376        9.4689857591        2.8259947862
O        11.3527457771        7.5856222809        7.6347770012
O         3.7743681533        7.5855753371        7.6529750422
O        13.2356158651        9.4685044536        2.8316358352
O        13.2357157111        7.5857940515        9.1858809033
O         3.7747179517        9.4686703641        4.3679035612
O         9.4688308869        5.6744493857        6.7892310393
O         7.5856422188       11.3527899817        1.9804021107
O         7.5856447195        5.6744094684        0.4235696289
O         9.4686018022       11.3523707094        5.2293311700
O         7.5854913474        7.5639544890        1.9804156416
O         9.4685455772        9.4636250925        6.7717646044
O         7.5639058252        9.4690334621        4.3854778830
O         9.4639546360        7.5854489443        9.1737425448
O         9.4687939952        7.5639473905        5.2296200330
O         7.5854718478        9.4639713363        0.4415335614
O         9.4636182509        9.4687773005        2.8434667672
O         7.5639953530        7.5854926335        7.6347865665
     192
 i =       13, E =     -5767.6751622687
Ti         0.0018566742        0.0018498758        0.0004506337
Ti         1.8863325175        1.8862233068        4.8077353318
Ti         0.0017856796        1.8866862866        2.3979682951
Ti         1.8866446861        0.0018614383        7.2177413516
Ti         0.0019432070        3.7764821815        0.0005678620
Ti         1.8867390790       13.2365702373        4.8018294636
Ti        11.3521532784        1.8862656513        2.4040121304
Ti         5.6669867968        0.0019540674        7.2205629475
Ti         1.8868185552        3.7761266787        7.2159378601
Ti         0.0018769571       13.2365259433        2.4042738122
Ti         5.6669344863        1.8863743219        4.8034249865
Ti        11.3517025614        0.0018228718       -0.0058345551
Ti         3.7764973697        0.0019137034       -0.0001079830
Ti        13.2365938324        1.8866698630        4.8139307915
Ti        13.2365735243        0.0018912269        7.2116274082
Ti         3.7760959070        1.8868475779        2.3993617689
Ti         1.8864115666        5.6669475695        4.8118728548
Ti         0.0017803275       11.3517568155        0.0066070111
Ti         0.0018815681        5.6669854717        2.3948762347
Ti         1.8862846416       11.3521109521        7.2117336718
Ti         0.0019124079        7.5714088880        0.0093871993
Ti         1.8868633713        9.4623220406        4.8032957415
Ti         7.5714887352        1.8863826243        2.4080761282
Ti         9.4619143873        0.0019653078        7.2117791686
Ti         1.8864120133        7.5714520493        7.2073218872
Ti         0.0018979336        9.4618621385        2.4038267742
Ti         9.4622401781        1.8868329528        4.8122231549
Ti         7.5713905097        0.0019321737       -0.0089382767
Ti         3.7765172812        3.7764872756        0.0001164251
Ti        13.2365054070       13.2365380112        4.8078975727
Ti        11.3520556229        5.6669303733        2.3997725828
Ti         5.6669019728       11.3520481517        7.2156854332
Ti        13.2365093936        3.7764872150        7.2112880646
Ti         3.7764510329       13.2364672620        2.4042643346
Ti         5.6668069510        5.6668262789        4.8076384922
Ti        11.3521033078       11.3521713583        0.0001906096
Ti        11.3517436761       13.2365396662        2.4101797803
Ti         5.6669521213        3.7760842896        7.2191030524
Ti         3.7761634556       11.3515605803        0.0047994821
Ti        13.2364810222        5.6669630640        4.8168972303
Ti         5.6669928102       13.2364289412        4.7985808046
Ti        11.3515539963        3.7761173225       -0.0042714225
Ti        13.2366765381       11.3517335988        7.2055063755
Ti         3.7760932922        5.6669562627        2.3961819555
Ti         3.7761160149        7.5714185406        0.0079315521
Ti        13.2364436777        9.4619091315        4.8080958219
Ti         7.5715934017        5.6668208628        2.4038603313
Ti         9.4622591423       11.3515567915        7.2069499045
Ti        13.2365127660        7.5713833818        7.2023801772
Ti         3.7764712450        9.4618664745        2.4040080834
Ti         9.4622430102        5.6669685661        4.8153784629
Ti         7.5714569159       11.3520571828       -0.0040273142
Ti        11.3516010056        9.4622712564        2.4084487971
Ti         5.6667901491        7.5715465358        7.2114360541
Ti         5.6669842076        9.4622887378        4.7999704561
Ti        11.3520241420        7.5714659006        0.0043614699
Ti         9.4618950664        3.7765120282        7.2114820000
Ti         7.5713925354       13.2364370668        2.4130689809
Ti         7.5714093945        3.7760909437       -0.0075827963
Ti         9.4618705446       13.2364588350        4.8074622602
Ti         7.5715719769        7.5715562563        0.0001639767
Ti         9.4618636343        9.4619099464        4.8076595011
Ti         7.5714034964        9.4622922471        2.4115884862
Ti         9.4622645433        7.5713855516        7.2037170839
O        -0.0006117498        0.0032863854        1.9722035564
O         1.8856722132        1.8852363378        6.7875268565
O         0.0032388584        1.8858611003        4.3739612958
O         1.8855855208       -0.0004921732        9.1931250496
O         1.8858505907        0.0031790668        5.2418574249
O        -0.0004553513        1.8856159789        0.4225973919
O         1.8851832937        1.8857685833        2.8279695216
O         0.0033017359       -0.0005857593        7.6438236213
O        -0.0002302265        3.7746206508        1.9579420467
O         1.8857972520       13.2351977299        6.7779174263
O        11.3532156977        1.8856760815        4.3837815131
O         5.6756533876       -0.0001105588        9.1919187000
O         1.8857194555        3.7742061812        5.2552338566
O        -0.0005460304       13.2351382710        0.4326914205
O         5.6755650592        1.8854464616        2.8285236633
O        11.3528277403       -0.0004436176        7.6337970699
O         3.7746054084       -0.0002855052        7.6576823729
O        13.2351791997        1.8858204384        2.8380629958
O        13.2350860348       -0.0005661181        9.1833754471
O         3.7742500138        1.8857001979        4.3600603874
O         1.8854843391        5.6755517855        6.7867586447
O        -0.0003963075       11.3527977156        1.9819994151