 DBCSR| CPU Multiplication driver                                           XSMM (U)
 DBCSR| Multrec recursion limit                                              512 (U)
 DBCSR| Multiplication stack size                                           1000 (D)
 DBCSR| Maximum elements for images                                    UNLIMITED (U)
 DBCSR| Multiplicative factor virtual images                                   1 (U)
 DBCSR| Use multiplication densification                                       T (D)
 DBCSR| Multiplication size stacks                                             3 (U)
 DBCSR| Use memory pool for CPU allocation                                     F (U)
 DBCSR| Number of 3D layers                                               SINGLE (U)
 DBCSR| Use MPI memory allocation                                              F (U)
 DBCSR| Use RMA algorithm                                                      F (U)
 DBCSR| Use Communication thread                                               T (U)
 DBCSR| Communication thread load                                             87 (D)
 DBCSR| MPI: My process id                                                     0
 DBCSR| MPI: Number of processes                                             128
 DBCSR| OMP: Current number of threads                                         1
 DBCSR| OMP: Max number of threads                                             1
 DBCSR| Split modifier for TAS multiplication algorithm                  1.0E+00 (U)


  **** **** ******  **  PROGRAM STARTED AT               2025-06-17 07:52:02.186
 ***** ** ***  *** **   PROGRAM STARTED ON                             nid001790
 **    ****   ******    PROGRAM STARTED BY                                cahart
 ***** **    ** ** **   PROGRAM PROCESS ID                                185640
  **** **  *******  **  PROGRAM STARTED IN /mnt/lustre/a2fs-work2/work/e05/e05/c
                                           ahart/postdoc2/work/group/tio2/anatas
                                           e/cell-441/geo-opt/mp-390/neutral-fro
                                           m-hole/pbe-u-o/u-6.0

 CP2K| version string:                                       CP2K version 2024.3
 CP2K| source code revision number:                                  git:6712648
 CP2K| cp2kflags: omp libint fftw3 libxc libgrpp elpa parallel scalapack cosma x
 CP2K|            smm plumed2 spglib mkl sirius libvori libbqb libvdwxc hdf5
 CP2K| is freely available from                            https://www.cp2k.org/
 CP2K| Program compiled at                       Thu 12 Sep 2024 10:20:47 AM BST
 CP2K| Program compiled on                                                  ln04
 CP2K| Program compiled for                                                local
 CP2K| Data directory path    /mnt/lustre/a2fs-work1/work/y07/shared/apps/core/c
 CP2K| Input file name                                                 input.inp

 GLOBAL| Force Environment number                                              1
 GLOBAL| Basis set file name                                        BASIS_MOLOPT
 GLOBAL| Potential file name                                      GTH_POTENTIALS
 GLOBAL| MM Potential file name                                     MM_POTENTIAL
 GLOBAL| Coordinate file name                                         system.xyz
 GLOBAL| Method name                                                        CP2K
 GLOBAL| Project name                                                       tio2
 GLOBAL| Run type                                                         ENERGY
 GLOBAL| FFT library                                                       FFTW3
 GLOBAL| Diagonalization library                                            ELPA
 GLOBAL| DGEMM library                                                      BLAS
 GLOBAL| Minimum number of eigenvectors for ELPA usage                        16
 GLOBAL| Orthonormality check for eigenvectors                          DISABLED
 GLOBAL| Matrix multiplication library                                     COSMA
 GLOBAL| All-to-all communication in single precision                          F
 GLOBAL| FFTs using library dependent lengths                                  F
 GLOBAL| Grid backend                                                       AUTO
 GLOBAL| Global print level                                               MEDIUM
 GLOBAL| MPI I/O enabled                                                       T
 GLOBAL| Total number of message passing processes                           128
 GLOBAL| Number of threads for this process                                    1
 GLOBAL| This output is from process                                           0
 GLOBAL| Stack size for threads created by OpenMP (OMP_STACKSIZE)        default
 GLOBAL| CPU model name                          AMD EPYC 7742 64-Core Processor
 GLOBAL| CPUID                                                              1002

 MEMORY| system memory details [Kb]
 MEMORY|                        rank 0           min           max       average
 MEMORY| MemTotal            263341976     263341976     263341976     263341976
 MEMORY| MemFree             234548004     234548004     234548256     234548025
 MEMORY| Buffers                     0             0             0             0
 MEMORY| Cached                1726080       1726080       1726080       1726080
 MEMORY| Slab                  6086044       6086036       6086044       6086043
 MEMORY| SReclaimable           907556        907556        907556        907556
 MEMORY| MemLikelyFree       237181640     237181640     237181892     237181661


 *** Fundamental physical constants (SI units) ***

 *** Literature: B. J. Mohr and B. N. Taylor,
 ***             CODATA recommended values of the fundamental physical
 ***             constants: 2006, Web Version 5.1
 ***             http://physics.nist.gov/constants

 Speed of light in vacuum [m/s]                             2.99792458000000E+08
 Magnetic constant or permeability of vacuum [N/A**2]       1.25663706143592E-06
 Electric constant or permittivity of vacuum [F/m]          8.85418781762039E-12
 Planck constant (h) [J*s]                                  6.62606896000000E-34
 Planck constant (h-bar) [J*s]                              1.05457162825177E-34
 Elementary charge [C]                                      1.60217648700000E-19
 Electron mass [kg]                                         9.10938215000000E-31
 Electron g factor [ ]                                     -2.00231930436220E+00
 Proton mass [kg]                                           1.67262163700000E-27
 Fine-structure constant                                    7.29735253760000E-03
 Rydberg constant [1/m]                                     1.09737315685270E+07
 Avogadro constant [1/mol]                                  6.02214179000000E+23
 Boltzmann constant [J/K]                                   1.38065040000000E-23
 Atomic mass unit [kg]                                      1.66053878200000E-27
 Bohr radius [m]                                            5.29177208590000E-11

 *** Conversion factors ***

 [u] -> [a.u.]                                              1.82288848426455E+03
 [Angstrom] -> [Bohr] = [a.u.]                              1.88972613288564E+00
 [a.u.] = [Bohr] -> [Angstrom]                              5.29177208590000E-01
 [a.u.] -> [s]                                              2.41888432650478E-17
 [a.u.] -> [fs]                                             2.41888432650478E-02
 [a.u.] -> [J]                                              4.35974393937059E-18
 [a.u.] -> [N]                                              8.23872205491840E-08
 [a.u.] -> [K]                                              3.15774647902944E+05
 [a.u.] -> [kJ/mol]                                         2.62549961709828E+03
 [a.u.] -> [kcal/mol]                                       6.27509468713739E+02
 [a.u.] -> [Pa]                                             2.94210107994716E+13
 [a.u.] -> [bar]                                            2.94210107994716E+08
 [a.u.] -> [atm]                                            2.90362800883016E+08
 [a.u.] -> [eV]                                             2.72113838565563E+01
 [a.u.] -> [Hz]                                             6.57968392072181E+15
 [a.u.] -> [1/cm] (wave numbers)                            2.19474631370540E+05
 [a.u./Bohr**2] -> [1/cm]                                   5.14048714338585E+03
 

 CELL_TOP| Volume [angstrom^3]:                                      2198.132028
 CELL_TOP| Vector a [angstrom    15.120     0.000     0.000   |a| =    15.120000
 CELL_TOP| Vector b [angstrom     0.000    15.120     0.000   |b| =    15.120000
 CELL_TOP| Vector c [angstrom     0.000     0.000     9.615   |c| =     9.615020
 CELL_TOP| Angle (b,c), alpha [degree]:                                90.000000
 CELL_TOP| Angle (a,c), beta  [degree]:                                90.000000
 CELL_TOP| Angle (a,b), gamma [degree]:                                90.000000
 CELL_TOP| Requested initial symmetry:                       MONOCLINIC_GAMMA_AB
 CELL_TOP| Numerically orthorhombic:                                         YES
 CELL_TOP| Periodicity                                                       XYZ

 *** WARNING in atoms_input.F:123 :: Overwriting coordinates. Active    ***
 *** coordinates read from &COORD section. Active coordinates READ from ***
 *** &COORD section                                                     ***


 GENERATE|  Preliminary Number of Bonds generated:                             0
 GENERATE|  Achieved consistency in connectivity generation.

 CELL| Volume [angstrom^3]:                                          2198.132028
 CELL| Vector a [angstrom]:      15.120     0.000     0.000   |a| =    15.120000
 CELL| Vector b [angstrom]:       0.000    15.120     0.000   |b| =    15.120000
 CELL| Vector c [angstrom]:       0.000     0.000     9.615   |c| =     9.615020
 CELL| Angle (b,c), alpha [degree]:                                    90.000000
 CELL| Angle (a,c), beta  [degree]:                                    90.000000
 CELL| Angle (a,b), gamma [degree]:                                    90.000000
 CELL| Requested initial symmetry:                           MONOCLINIC_GAMMA_AB
 CELL| Numerically orthorhombic:                                             YES
 CELL| Periodicity                                                           XYZ

 CELL_REF| Volume [angstrom^3]:                                      2198.132028
 CELL_REF| Vector a [angstrom    15.120     0.000     0.000   |a| =    15.120000
 CELL_REF| Vector b [angstrom     0.000    15.120     0.000   |b| =    15.120000
 CELL_REF| Vector c [angstrom     0.000     0.000     9.615   |c| =     9.615020
 CELL_REF| Angle (b,c), alpha [degree]:                                90.000000
 CELL_REF| Angle (a,c), beta  [degree]:                                90.000000
 CELL_REF| Angle (a,b), gamma [degree]:                                90.000000
 CELL_REF| Requested initial symmetry:                       MONOCLINIC_GAMMA_AB
 CELL_REF| Numerically orthorhombic:                                         YES
 CELL_REF| Periodicity                                                       XYZ

 *******************************************************************************
 *******************************************************************************
 **                                                                           **
 **     #####                         ##              ##                      **
 **    ##   ##            ##          ##              ##                      **
 **   ##     ##                       ##            ######                    **
 **   ##     ##  ##   ##  ##   #####  ##  ##   ####   ##    #####    #####    **
 **   ##     ##  ##   ##  ##  ##      ## ##   ##      ##   ##   ##  ##   ##   **
 **   ##  ## ##  ##   ##  ##  ##      ####     ###    ##   ######   ######    **
 **    ##  ###   ##   ##  ##  ##      ## ##      ##   ##   ##       ##        **
 **     #######   #####   ##   #####  ##  ##  ####    ##    #####   ##        **
 **           ##                                                    ##        **
 **                                                                           **
 **                                                ... make the atoms dance   **
 **                                                                           **
 **            Copyright (C) by CP2K developers group (2000-2024)             **
 **                      J. Chem. Phys. 152, 194103 (2020)                    **
 **                                                                           **
 *******************************************************************************

 DFT| Spin unrestricted (spin-polarized) Kohn-Sham calculation               UKS
 DFT| Multiplicity                                                             1
 DFT| Number of spin states                                                    2
 DFT| Charge                                                                   0
 DFT| Self-interaction correction (SIC)                                       NO
 DFT| Cutoffs: density                                              1.000000E-10
 DFT|          gradient                                             1.000000E-10
 DFT|          tau                                                  1.000000E-10
 DFT|          cutoff_smoothing_range                               0.000000E+00
 DFT| XC density smoothing                                                  NONE
 DFT| XC derivatives                                                          PW

 DFT+U| Method                                                          MULLIKEN
 DFT+U| Check atomic kind information for details

 FUNCTIONAL| PBE:
 FUNCTIONAL| J.P.Perdew, K.Burke, M.Ernzerhof, Phys. Rev. Letter, vol. 77, n 18,
 FUNCTIONAL|  pp. 3865-3868, (1996) {spin polarized}                            


 QS| Method:                                                                 GPW
 QS| Density plane wave grid type                        NON-SPHERICAL FULLSPACE
 QS| Number of grid levels:                                                    4
 QS| Density cutoff [a.u.]:                                                300.0
 QS| Multi grid cutoff [a.u.]: 1) grid level                               300.0
 QS|                           2) grid level                               100.0
 QS|                           3) grid level                                33.3
 QS|                           4) grid level                                11.1
 QS| Grid level progression factor:                                          3.0
 QS| Relative density cutoff [a.u.]:                                        20.0
 QS| Interaction thresholds: eps_pgf_orb:                                1.0E-06
 QS|                         eps_filter_matrix:                          0.0E+00
 QS|                         eps_core_charge:                            1.0E-14
 QS|                         eps_rho_gspace:                             1.0E-12
 QS|                         eps_rho_rspace:                             1.0E-12
 QS|                         eps_gvg_rspace:                             1.0E-06
 QS|                         eps_ppl:                                    1.0E-02
 QS|                         eps_ppnl:                                   1.0E-08


 ATOMIC KIND INFORMATION

  1. Atomic kind: Ti                                    Number of atoms:      64

     Orbital Basis Set                                    DZVP-MOLOPT-SR-GTH-q12

       Number of orbital shell sets:                                           1
       Number of orbital shells:                                               8
       Number of primitive Cartesian functions:                                6
       Number of Cartesian basis functions:                                   31
       Number of spherical basis functions:                                   26
       Norm type:                                                              2

       Normalised Cartesian orbitals:

                        Set   Shell   Orbital            Exponent    Coefficient

                          1       1    2s                7.884570       0.015554
                                                         3.894698       0.963603
                                                         1.513589      -0.631435
                                                         0.596768      -0.343022
                                                         0.222222      -0.006534
                                                         0.077078       0.007652

                          1       2    3s                7.884570      -0.009340
                                                         3.894698       0.212624
                                                         1.513589      -0.258368
                                                         0.596768      -0.226206
                                                         0.222222       0.039438
                                                         0.077078       0.107179

                          1       3    4s                7.884570       0.276563
                                                         3.894698       0.105452
                                                         1.513589       0.085149
                                                         0.596768       0.882541
                                                         0.222222      -0.696223
                                                         0.077078       0.156638

                          1       4    3px               7.884570      -2.034794
                                                         3.894698       0.782008
                                                         1.513589       1.253903
                                                         0.596768       0.347823
                                                         0.222222       0.016778
                                                         0.077078      -0.000433
                          1       4    3py               7.884570      -2.034794
                                                         3.894698       0.782008
                                                         1.513589       1.253903
                                                         0.596768       0.347823
                                                         0.222222       0.016778
                                                         0.077078      -0.000433
                          1       4    3pz               7.884570      -2.034794
                                                         3.894698       0.782008
                                                         1.513589       1.253903
                                                         0.596768       0.347823
                                                         0.222222       0.016778
                                                         0.077078      -0.000433

                          1       5    4px               7.884570       0.376572
                                                         3.894698      -0.182875
                                                         1.513589      -0.474776
                                                         0.596768      -0.081757
                                                         0.222222       0.064432
                                                         0.077078       0.047279
                          1       5    4py               7.884570       0.376572
                                                         3.894698      -0.182875
                                                         1.513589      -0.474776
                                                         0.596768      -0.081757
                                                         0.222222       0.064432
                                                         0.077078       0.047279
                          1       5    4pz               7.884570       0.376572
                                                         3.894698      -0.182875
                                                         1.513589      -0.474776
                                                         0.596768      -0.081757
                                                         0.222222       0.064432
                                                         0.077078       0.047279

                          1       6    4dx2              7.884570       3.047350
                                                         3.894698       3.289529
                                                         1.513589       1.060616
                                                         0.596768       0.249930
                                                         0.222222       0.038806
                                                         0.077078       0.002319
                          1       6    4dxy              7.884570       5.278165
                                                         3.894698       5.697631
                                                         1.513589       1.837041
                                                         0.596768       0.432892
                                                         0.222222       0.067214
                                                         0.077078       0.004017
                          1       6    4dxz              7.884570       5.278165
                                                         3.894698       5.697631
                                                         1.513589       1.837041
                                                         0.596768       0.432892
                                                         0.222222       0.067214
                                                         0.077078       0.004017
                          1       6    4dy2              7.884570       3.047350
                                                         3.894698       3.289529
                                                         1.513589       1.060616
                                                         0.596768       0.249930
                                                         0.222222       0.038806
                                                         0.077078       0.002319
                          1       6    4dyz              7.884570       5.278165
                                                         3.894698       5.697631
                                                         1.513589       1.837041
                                                         0.596768       0.432892
                                                         0.222222       0.067214
                                                         0.077078       0.004017
                          1       6    4dz2              7.884570       3.047350
                                                         3.894698       3.289529
                                                         1.513589       1.060616
                                                         0.596768       0.249930
                                                         0.222222       0.038806
                                                         0.077078       0.002319

                          1       7    5dx2              7.884570      -2.119015
                                                         3.894698      -1.237751
                                                         1.513589      -0.746777
                                                         0.596768      -0.071514
                                                         0.222222       0.004086
                                                         0.077078       0.017595
                          1       7    5dxy              7.884570      -3.670241
                                                         3.894698      -2.143848
                                                         1.513589      -1.293455
                                                         0.596768      -0.123865
                                                         0.222222       0.007077
                                                         0.077078       0.030475
                          1       7    5dxz              7.884570      -3.670241
                                                         3.894698      -2.143848
                                                         1.513589      -1.293455
                                                         0.596768      -0.123865
                                                         0.222222       0.007077
                                                         0.077078       0.030475
                          1       7    5dy2              7.884570      -2.119015
                                                         3.894698      -1.237751
                                                         1.513589      -0.746777
                                                         0.596768      -0.071514
                                                         0.222222       0.004086
                                                         0.077078       0.017595
                          1       7    5dyz              7.884570      -3.670241
                                                         3.894698      -2.143848
                                                         1.513589      -1.293455
                                                         0.596768      -0.123865
                                                         0.222222       0.007077
                                                         0.077078       0.030475
                          1       7    5dz2              7.884570      -2.119015
                                                         3.894698      -1.237751
                                                         1.513589      -0.746777
                                                         0.596768      -0.071514
                                                         0.222222       0.004086
                                                         0.077078       0.017595

                          1       8    5fx3              7.884570      -0.342058
                                                         3.894698       0.375798
                                                         1.513589      -0.706469
                                                         0.596768      -0.229994
                                                         0.222222      -0.012723
                                                         0.077078       0.003932
                          1       8    5fx2y             7.884570      -0.764866
                                                         3.894698       0.840310
                                                         1.513589      -1.579712
                                                         0.596768      -0.514282
                                                         0.222222      -0.028450
                                                         0.077078       0.008792
                          1       8    5fx2z             7.884570      -0.764866
                                                         3.894698       0.840310
                                                         1.513589      -1.579712
                                                         0.596768      -0.514282
                                                         0.222222      -0.028450
                                                         0.077078       0.008792
                          1       8    5fxy2             7.884570      -0.764866
                                                         3.894698       0.840310
                                                         1.513589      -1.579712
                                                         0.596768      -0.514282
                                                         0.222222      -0.028450
                                                         0.077078       0.008792
                          1       8    5fxyz             7.884570      -1.324787
                                                         3.894698       1.455460
                                                         1.513589      -2.736142
                                                         0.596768      -0.890763
                                                         0.222222      -0.049276
                                                         0.077078       0.015229
                          1       8    5fxz2             7.884570      -0.764866
                                                         3.894698       0.840310
                                                         1.513589      -1.579712
                                                         0.596768      -0.514282
                                                         0.222222      -0.028450
                                                         0.077078       0.008792
                          1       8    5fy3              7.884570      -0.342058
                                                         3.894698       0.375798
                                                         1.513589      -0.706469
                                                         0.596768      -0.229994
                                                         0.222222      -0.012723
                                                         0.077078       0.003932
                          1       8    5fy2z             7.884570      -0.764866
                                                         3.894698       0.840310
                                                         1.513589      -1.579712
                                                         0.596768      -0.514282
                                                         0.222222      -0.028450
                                                         0.077078       0.008792
                          1       8    5fyz2             7.884570      -0.764866
                                                         3.894698       0.840310
                                                         1.513589      -1.579712
                                                         0.596768      -0.514282
                                                         0.222222      -0.028450
                                                         0.077078       0.008792
                          1       8    5fz3              7.884570      -0.342058
                                                         3.894698       0.375798
                                                         1.513589      -0.706469
                                                         0.596768      -0.229994
                                                         0.222222      -0.012723
                                                         0.077078       0.003932

       Atomic covalent radius [Angstrom]:                                  1.320

       Atomic van der Waals radius [Angstrom]:                             1.760

     GTH Potential information for                                   GTH-PBE-q12

       Description:                       Goedecker-Teter-Hutter pseudopotential
                                           Goedecker et al., PRB 54, 1703 (1996)
                                          Hartwigsen et al., PRB 58, 3641 (1998)
                                                      Krack, TCA 114, 145 (2005)

       Gaussian exponent of the core charge distribution:               3.462604
       Electronic configuration (s p d ...):                           4   6   2

       Parameters of the local part of the GTH pseudopotential:

                          rloc        C1          C2          C3          C4
                        0.380000    8.711442   -0.700287

       Parameters of the non-local part of the GTH pseudopotential:

                   l      r(l)      h(i,j,l)

                   0    0.337771    2.575264    3.692971
                                    3.692971   -4.767605
                   1    0.242531   -4.630541    8.870875
                                    8.870875  -10.496161
                   2    0.243317   -9.406653

  2. Atomic kind: O                                     Number of atoms:     128

     Orbital Basis Set                                     DZVP-MOLOPT-SR-GTH-q6

       Number of orbital shell sets:                                           1
       Number of orbital shells:                                               5
       Number of primitive Cartesian functions:                                5
       Number of Cartesian basis functions:                                   14
       Number of spherical basis functions:                                   13
       Norm type:                                                              2

       Normalised Cartesian orbitals:

                        Set   Shell   Orbital            Exponent    Coefficient

                          1       1    2s               10.389228       0.396646
                                                         3.849621       0.208811
                                                         1.388401      -0.301641
                                                         0.496955      -0.274061
                                                         0.162492      -0.033677

                          1       2    3s               10.389228       0.303673
                                                         3.849621       0.240943
                                                         1.388401      -0.313066
                                                         0.496955      -0.043055
                                                         0.162492       0.213991

                          1       3    3px              10.389228      -1.530415
                                                         3.849621      -1.371928
                                                         1.388401      -0.761951
                                                         0.496955      -0.253695
                                                         0.162492      -0.035541
                          1       3    3py              10.389228      -1.530415
                                                         3.849621      -1.371928
                                                         1.388401      -0.761951
                                                         0.496955      -0.253695
                                                         0.162492      -0.035541
                          1       3    3pz              10.389228      -1.530415
                                                         3.849621      -1.371928
                                                         1.388401      -0.761951
                                                         0.496955      -0.253695
                                                         0.162492      -0.035541

                          1       4    4px              10.389228      -0.565392
                                                         3.849621      -0.038231
                                                         1.388401      -0.382373
                                                         0.496955       0.179070
                                                         0.162492       0.122714
                          1       4    4py              10.389228      -0.565392
                                                         3.849621      -0.038231
                                                         1.388401      -0.382373
                                                         0.496955       0.179070
                                                         0.162492       0.122714
                          1       4    4pz              10.389228      -0.565392
                                                         3.849621      -0.038231
                                                         1.388401      -0.382373
                                                         0.496955       0.179070
                                                         0.162492       0.122714

                          1       5    4dx2             10.389228       1.867377
                                                         3.849621       0.670994
                                                         1.388401       1.353441
                                                         0.496955       0.273538
                                                         0.162492       0.006620
                          1       5    4dxy             10.389228       3.234392
                                                         3.849621       1.162195
                                                         1.388401       2.344229
                                                         0.496955       0.473781
                                                         0.162492       0.011466
                          1       5    4dxz             10.389228       3.234392
                                                         3.849621       1.162195
                                                         1.388401       2.344229
                                                         0.496955       0.473781
                                                         0.162492       0.011466
                          1       5    4dy2             10.389228       1.867377
                                                         3.849621       0.670994
                                                         1.388401       1.353441
                                                         0.496955       0.273538
                                                         0.162492       0.006620
                          1       5    4dyz             10.389228       3.234392
                                                         3.849621       1.162195
                                                         1.388401       2.344229
                                                         0.496955       0.473781
                                                         0.162492       0.011466
                          1       5    4dz2             10.389228       1.867377
                                                         3.849621       0.670994
                                                         1.388401       1.353441
                                                         0.496955       0.273538
                                                         0.162492       0.006620

       Atomic covalent radius [Angstrom]:                                  0.730

       Atomic van der Waals radius [Angstrom]:                             1.520

     GTH Potential information for                                    GTH-PBE-q6

       Description:                       Goedecker-Teter-Hutter pseudopotential
                                           Goedecker et al., PRB 54, 1703 (1996)
                                          Hartwigsen et al., PRB 58, 3641 (1998)
                                                      Krack, TCA 114, 145 (2005)

       Gaussian exponent of the core charge distribution:               8.360253
       Electronic configuration (s p d ...):                               2   4

       Parameters of the local part of the GTH pseudopotential:

                          rloc        C1          C2          C3          C4
                        0.244554  -16.667215    2.487311

       Parameters of the non-local part of the GTH pseudopotential:

                   l      r(l)      h(i,j,l)

                   0    0.220956   18.337458
                   1    0.211332

     A DFT+U correction is applied to atoms of this atomic kind:
       Angular quantum momentum number L:                                      1
       U(eff) = (U - J) value in [eV]:                                     6.000


 MOLECULE KIND INFORMATION


 All atoms are their own molecule, skipping detailed information


 TOTAL NUMBERS AND MAXIMUM NUMBERS

  Total number of            - Atomic kinds:                                   2
                             - Atoms:                                        192
                             - Shell sets:                                   192
                             - Shells:                                      1152
                             - Primitive Cartesian functions:               1024
                             - Cartesian basis functions:                   3776
                             - Spherical basis functions:                   3328

  Maximum angular momentum of- Orbital basis functions:                        3
                             - Local part of the GTH pseudopotential:          2
                             - Non-local part of the GTH pseudopotential:      3


 MODULE QUICKSTEP: ATOMIC COORDINATES IN ANGSTROM

   Atom Kind Element         X             Y             Z       Z(eff)     Mass
      1    1 Ti   22     -0.001987      0.002472      0.034532  12.0000  47.8670
      2    1 Ti   22      1.882907      1.888547      4.842025  12.0000  47.8670
      3    1 Ti   22     -0.000371      1.887404      2.435500  12.0000  47.8670
      4    1 Ti   22      1.882663      0.003939      7.244198  12.0000  47.8670
      5    1 Ti   22     -0.003039      3.775731      0.038557  12.0000  47.8670
      6    1 Ti   22      1.881737     13.239821      4.840385  12.0000  47.8670
      7    1 Ti   22     11.352454      1.888510      2.436809  12.0000  47.8670
      8    1 Ti   22      5.668573      0.002149      7.282125  12.0000  47.8670
      9    1 Ti   22      1.881243      3.782269      7.238846  12.0000  47.8670
     10    1 Ti   22     -0.001070     13.239106      2.437724  12.0000  47.8670
     11    1 Ti   22      5.665759      1.851004      4.827962  12.0000  47.8670
     12    1 Ti   22     11.355528      0.002561      0.033969  12.0000  47.8670
     13    1 Ti   22      3.764120      0.003320      0.030689  12.0000  47.8670
     14    1 Ti   22     13.235953      1.888963      4.842677  12.0000  47.8670
     15    1 Ti   22     13.236764      0.004034      7.242893  12.0000  47.8670
     16    1 Ti   22      3.769731      1.886666      2.439090  12.0000  47.8670
     17    1 Ti   22      1.877796      5.678228      4.843156  12.0000  47.8670
     18    1 Ti   22     -0.003576     11.355803      0.034891  12.0000  47.8670
     19    1 Ti   22     -0.000736      5.671456      2.428355  12.0000  47.8670
     20    1 Ti   22      1.879137     11.353219      7.242766  12.0000  47.8670
     21    1 Ti   22     -0.011174      7.574076      0.044092  12.0000  47.8670
     22    1 Ti   22      1.874445      9.464867      4.840939  12.0000  47.8670
     23    1 Ti   22      7.573280      1.887007      2.442862  12.0000  47.8670
     24    1 Ti   22      9.467717      0.003760      7.245613  12.0000  47.8670
     25    1 Ti   22      1.873789      7.575563      7.233232  12.0000  47.8670
     26    1 Ti   22     -0.001824      9.468444      2.432293  12.0000  47.8670
     27    1 Ti   22      9.464092      1.888639      4.839414  12.0000  47.8670
     28    1 Ti   22      7.582659      0.003188      0.028087  12.0000  47.8670
     29    1 Ti   22      3.762215      3.771038      0.035871  12.0000  47.8670
     30    1 Ti   22     13.234392     13.240375      4.840331  12.0000  47.8670
     31    1 Ti   22     11.352247      5.673530      2.429736  12.0000  47.8670
     32    1 Ti   22      5.661154     11.355529      7.274085  12.0000  47.8670
     33    1 Ti   22     13.235704      3.780516      7.237298  12.0000  47.8670
     34    1 Ti   22      3.767762     13.238929      2.439807  12.0000  47.8670
     35    1 Ti   22      5.665275      5.532445      4.790820  12.0000  47.8670
     36    1 Ti   22     11.352470     11.355938      0.031726  12.0000  47.8670
     37    1 Ti   22     11.350083     13.239289      2.439693  12.0000  47.8670
     38    1 Ti   22      5.666972      3.773140      7.273207  12.0000  47.8670
     39    1 Ti   22      3.761173     11.361122      0.034405  12.0000  47.8670
     40    1 Ti   22     13.236508      5.677940      4.847858  12.0000  47.8670
     41    1 Ti   22      5.662263     13.276145      4.827243  12.0000  47.8670
     42    1 Ti   22     11.355778      3.776439      0.038089  12.0000  47.8670
     43    1 Ti   22     13.233186     11.356481      7.242915  12.0000  47.8670
     44    1 Ti   22      3.770453      5.674109      2.417928  12.0000  47.8670
     45    1 Ti   22      3.734823      7.573689      0.037925  12.0000  47.8670
     46    1 Ti   22     13.233284      9.471555      4.843765  12.0000  47.8670
     47    1 Ti   22      7.570519      5.674248      2.420397  12.0000  47.8670
     48    1 Ti   22      9.457358     11.353843      7.245915  12.0000  47.8670
     49    1 Ti   22     13.237517      7.578337      7.229458  12.0000  47.8670
     50    1 Ti   22      3.767087      9.463208      2.420397  12.0000  47.8670
     51    1 Ti   22      9.469916      5.677540      4.840405  12.0000  47.8670
     52    1 Ti   22      7.576121     11.361281      0.030813  12.0000  47.8670
     53    1 Ti   22     11.349861      9.470217      2.434888  12.0000  47.8670
     54    1 Ti   22      5.671035      7.574125      7.343280  12.0000  47.8670
     55    1 Ti   22      5.661671      9.605713      4.784016  12.0000  47.8670
     56    1 Ti   22     11.366784      7.575451      0.042979  12.0000  47.8670
     57    1 Ti   22      9.466550      3.782324      7.241522  12.0000  47.8670
     58    1 Ti   22      7.568492     13.239269      2.443696  12.0000  47.8670
     59    1 Ti   22      7.581908      3.770517      0.033096  12.0000  47.8670
     60    1 Ti   22      9.457463     13.239496      4.836050  12.0000  47.8670
     61    1 Ti   22      7.617067      7.574216      0.036184  12.0000  47.8670
     62    1 Ti   22      9.461766      9.465840      4.837121  12.0000  47.8670
     63    1 Ti   22      7.568313      9.464137      2.423849  12.0000  47.8670
     64    1 Ti   22      9.478316      7.576410      7.232969  12.0000  47.8670
     65    2 O     8      0.000020      0.002575      2.008395   6.0000  15.9994
     66    2 O     8      1.884177      1.892103      6.814647   6.0000  15.9994
     67    2 O     8      0.001314      1.886147      4.413291   6.0000  15.9994
     68    2 O     8      1.885723      0.001268      9.220466   6.0000  15.9994
     69    2 O     8      1.883547      0.003781      5.269330   6.0000  15.9994
     70    2 O     8      0.000317      1.888845      0.462037   6.0000  15.9994
     71    2 O     8      1.886246      1.884719      2.866113   6.0000  15.9994
     72    2 O     8      0.001377      0.001543      7.673079   6.0000  15.9994
     73    2 O     8      0.000417      3.778344      2.007809   6.0000  15.9994
     74    2 O     8      1.883470     13.237253      6.815037   6.0000  15.9994
     75    2 O     8     11.350032      1.886147      4.413666   6.0000  15.9994
     76    2 O     8      5.671726      0.001512      9.222119   6.0000  15.9994
     77    2 O     8      1.886553      3.787983      5.266871   6.0000  15.9994
     78    2 O     8      0.000143     13.237594      0.462237   6.0000  15.9994
     79    2 O     8      5.669121      1.882586      2.865702   6.0000  15.9994
     80    2 O     8     11.351615      0.001680      7.672970   6.0000  15.9994
     81    2 O     8      3.773156      0.001575      7.675623   6.0000  15.9994
     82    2 O     8     13.236172      1.884796      2.866187   6.0000  15.9994
     83    2 O     8     13.236761      0.001134      9.219639   6.0000  15.9994
     84    2 O     8      3.774909      1.883590      4.411555   6.0000  15.9994
     85    2 O     8      1.883240      5.680136      6.816697   6.0000  15.9994
     86    2 O     8     -0.000256     11.352796      2.008436   6.0000  15.9994
     87    2 O     8      0.000338      5.676648      0.461258   6.0000  15.9994
     88    2 O     8      1.889737     11.349339      5.266107   6.0000  15.9994
     89    2 O     8      0.000420      7.572094      2.009401   6.0000  15.9994
     90    2 O     8      1.882848      9.466060      6.814550   6.0000  15.9994
     91    2 O     8      7.562646      1.883689      4.414140   6.0000  15.9994
     92    2 O     8      9.464898      0.001125      9.219357   6.0000  15.9994
     93    2 O     8      1.881996      7.574948      5.270126   6.0000  15.9994
     94    2 O     8      0.000162      9.465542      0.463631   6.0000  15.9994
     95    2 O     8      9.462045      1.884900      2.867580   6.0000  15.9994
     96    2 O     8      7.570745      0.001304      7.673048   6.0000  15.9994
     97    2 O     8      3.766605      0.003078      2.007921   6.0000  15.9994
     98    2 O     8     13.237748      1.891263      6.814552   6.0000  15.9994
     99    2 O     8      0.001893      5.705518      4.413737   6.0000  15.9994
    100    2 O     8      1.885947     11.355370      9.219361   6.0000  15.9994
    101    2 O     8     13.237134      0.003666      5.268730   6.0000  15.9994
    102    2 O     8      3.768655      1.888860      0.459550   6.0000  15.9994
    103    2 O     8      1.888482      5.649293      2.867266   6.0000  15.9994
    104    2 O     8      0.000972     11.355110      7.673121   6.0000  15.9994
    105    2 O     8     11.354411      1.889220      0.462168   6.0000  15.9994
    106    2 O     8      5.652644      0.003510      5.272128   6.0000  15.9994
    107    2 O     8      5.655984      1.892415      6.821207   6.0000  15.9994
    108    2 O     8     11.354147      0.002354      2.008775   6.0000  15.9994
    109    2 O     8      1.886918      3.769958      9.219767   6.0000  15.9994
    110    2 O     8      0.000781     13.237800      4.413109   6.0000  15.9994
    111    2 O     8      0.001392      3.771687      7.672118   6.0000  15.9994
    112    2 O     8      1.885134     13.238699      2.866073   6.0000  15.9994
    113    2 O     8      3.765153      3.776430      2.006642   6.0000  15.9994
    114    2 O     8     13.237428     13.238726      6.815744   6.0000  15.9994
    115    2 O     8     11.348138      5.705697      4.414142   6.0000  15.9994
    116    2 O     8      5.665296     11.351828      9.218468   6.0000  15.9994
    117    2 O     8     13.237409      3.785709      5.267745   6.0000  15.9994
    118    2 O     8      3.768037     13.238378      0.459607   6.0000  15.9994
    119    2 O     8      5.668232      5.629894      2.820233   6.0000  15.9994
    120    2 O     8     11.347500     11.355117      7.671607   6.0000  15.9994
    121    2 O     8     11.353824     13.237275      0.462441   6.0000  15.9994
    122    2 O     8      5.653113      3.752316      5.261717   6.0000  15.9994
    123    2 O     8      3.775288     11.349460      7.672510   6.0000  15.9994
    124    2 O     8     13.235825      5.650445      2.865853   6.0000  15.9994
    125    2 O     8      5.654215     13.235506      6.821829   6.0000  15.9994
    126    2 O     8     11.353619      3.778965      2.007913   6.0000  15.9994
    127    2 O     8     13.235252     11.355362      9.219708   6.0000  15.9994
    128    2 O     8      3.790773      5.717822      4.410754   6.0000  15.9994
    129    2 O     8      5.656264      5.715364      6.755504   6.0000  15.9994
    130    2 O     8     11.353014     11.352928      2.008578   6.0000  15.9994
    131    2 O     8     13.236233      3.770417      9.220009   6.0000  15.9994
    132    2 O     8      3.773430     13.240364      4.411034   6.0000  15.9994
    133    2 O     8     11.354384      5.678320      0.461885   6.0000  15.9994
    134    2 O     8      5.652170     11.381336      5.264111   6.0000  15.9994
    135    2 O     8      3.776927      3.779111      7.672391   6.0000  15.9994
    136    2 O     8     13.234944     13.238559      2.866981   6.0000  15.9994
    137    2 O     8     13.237170     11.353715      5.269145   6.0000  15.9994
    138    2 O     8      3.766237      5.678988      0.456259   6.0000  15.9994
    139    2 O     8      5.664970     13.240033      2.864231   6.0000  15.9994
    140    2 O     8     11.350674      3.771896      7.671661   6.0000  15.9994
    141    2 O     8      3.761169     11.354697      2.007129   6.0000  15.9994
    142    2 O     8     13.237749      5.680344      6.815985   6.0000  15.9994
    143    2 O     8     11.346240     13.234565      4.414738   6.0000  15.9994
    144    2 O     8      5.670374      3.773877      9.217263   6.0000  15.9994
    145    2 O     8      3.767932      7.571788      2.005980   6.0000  15.9994
    146    2 O     8     13.237334      9.468397      6.815084   6.0000  15.9994
    147    2 O     8      7.541212      5.717081      4.413745   6.0000  15.9994
    148    2 O     8      9.457619     11.355495      9.217173   6.0000  15.9994
    149    2 O     8     13.236816      7.579167      5.269682   6.0000  15.9994
    150    2 O     8      3.765984      9.462672      0.458717   6.0000  15.9994
    151    2 O     8      9.457189      5.650391      2.869047   6.0000  15.9994
    152    2 O     8      7.554277     11.349465      7.672027   6.0000  15.9994
    153    2 O     8     11.353751      9.466436      0.463619   6.0000  15.9994
    154    2 O     8      5.652933      7.577007      5.072866   6.0000  15.9994
    155    2 O     8      5.655094      9.420155      6.755366   6.0000  15.9994
    156    2 O     8     11.353199      7.573536      2.010357   6.0000  15.9994
    157    2 O     8      9.462496      3.770447      9.218054   6.0000  15.9994
    158    2 O     8      7.553964     13.243764      4.412170   6.0000  15.9994
    159    2 O     8      7.562917      3.778481      7.669761   6.0000  15.9994
    160    2 O     8      9.458889     13.238645      2.868199   6.0000  15.9994
    161    2 O     8      7.583766      0.003078      2.008498   6.0000  15.9994
    162    2 O     8      9.469494      1.892132      6.814358   6.0000  15.9994
    163    2 O     8      0.001516      9.469800      4.413665   6.0000  15.9994
    164    2 O     8      1.883581      7.584997      9.223428   6.0000  15.9994
    165    2 O     8      9.466970      0.003157      5.268113   6.0000  15.9994
    166    2 O     8      7.582567      1.889078      0.459284   6.0000  15.9994
    167    2 O     8      1.887581      9.475497      2.867295   6.0000  15.9994
    168    2 O     8      0.000380      7.586185      7.673780   6.0000  15.9994
    169    2 O     8      7.585463      3.776284      2.006944   6.0000  15.9994
    170    2 O     8      9.470886     13.236431      6.814804   6.0000  15.9994
    171    2 O     8     11.343922      9.472789      4.415438   6.0000  15.9994
    172    2 O     8      5.674242      7.583907      9.216059   6.0000  15.9994
    173    2 O     8      9.464391      3.787957      5.265531   6.0000  15.9994
    174    2 O     8      7.580206     13.238267      0.459478   6.0000  15.9994
    175    2 O     8      5.664744      9.538331      2.819859   6.0000  15.9994
    176    2 O     8     11.353679      7.586058      7.673605   6.0000  15.9994
    177    2 O     8      3.771089      7.584115      7.669640   6.0000  15.9994
    178    2 O     8     13.234279      9.472400      2.866558   6.0000  15.9994
    179    2 O     8     13.237279      7.585685      9.222279   6.0000  15.9994
    180    2 O     8      3.789429      9.408961      4.411242   6.0000  15.9994
    181    2 O     8      9.470694      5.679614      6.815762   6.0000  15.9994
    182    2 O     8      7.587969     11.355123      2.007853   6.0000  15.9994
    183    2 O     8      7.585810      5.679021      0.457137   6.0000  15.9994
    184    2 O     8      9.414464     11.349439      5.265296   6.0000  15.9994
    185    2 O     8      7.581902      7.572562      2.006081   6.0000  15.9994
    186    2 O     8      9.471726      9.467275      6.814414   6.0000  15.9994
    187    2 O     8      7.536162      9.407048      4.412199   6.0000  15.9994
    188    2 O     8      9.468898      7.585429      9.222182   6.0000  15.9994
    189    2 O     8      9.468218      7.575862      5.268756   6.0000  15.9994
    190    2 O     8      7.583993      9.463680      0.459172   6.0000  15.9994
    191    2 O     8      9.453800      9.475675      2.869444   6.0000  15.9994
    192    2 O     8      7.576840      7.584447      7.666578   6.0000  15.9994



 SCF PARAMETERS         Density guess:                                   RESTART
                        --------------------------------------------------------
                        max_scf:                                              40
                        max_scf_history:                                       0
                        max_diis:                                              4
                        --------------------------------------------------------
                        eps_scf:                                        1.00E-06
                        eps_scf_history:                                0.00E+00
                        eps_diis:                                       1.00E-01
                        eps_eigval:                                     1.00E-05
                        --------------------------------------------------------
                        level_shift [a.u.]:                             0.000000
                        --------------------------------------------------------
                        Outer loop SCF in use 
                        No variables optimised in outer loop
                        eps_scf                                         1.00E-06
                        max_scf                                               60
                        No outer loop optimization
                        step_size                                       5.00E-01

 PW_GRID| Information for grid number                                          1
 PW_GRID| Grid distributed over                                   128 processors
 PW_GRID| Real space group dimensions                                   128    1
 PW_GRID| the grid is blocked:                                                NO
 PW_GRID| Cutoff [a.u.]                                                    300.0
 PW_GRID| spherical cutoff:                                                   NO
 PW_GRID|   Bounds   1           -112     112                Points:         225
 PW_GRID|   Bounds   2           -112     112                Points:         225
 PW_GRID|   Bounds   3            -72      71                Points:         144
 PW_GRID| Volume element (a.u.^3)  0.2035E-02     Volume (a.u.^3)     14833.7304
 PW_GRID| Grid span                                                    FULLSPACE
 PW_GRID|   Distribution                         Average         Max         Min
 PW_GRID|   G-Vectors                            56953.1       57150       56925
 PW_GRID|   G-Rays                                 253.1         254         253
 PW_GRID|   Real Space Points                    56953.1       64800       32400

 PW_GRID| Information for grid number                                          2
 PW_GRID| Number of the reference grid                                         1
 PW_GRID| Grid distributed over                                   128 processors
 PW_GRID| Real space group dimensions                                   128    1
 PW_GRID| the grid is blocked:                                                NO
 PW_GRID| Cutoff [a.u.]                                                    100.0
 PW_GRID| spherical cutoff:                                                   NO
 PW_GRID|   Bounds   1            -67      67                Points:         135
 PW_GRID|   Bounds   2            -67      67                Points:         135
 PW_GRID|   Bounds   3            -40      40                Points:          81
 PW_GRID| Volume element (a.u.^3)  0.1005E-01     Volume (a.u.^3)     14833.7304
 PW_GRID| Grid span                                                    FULLSPACE
 PW_GRID|   Distribution                         Average         Max         Min
 PW_GRID|   G-Vectors                            11533.0       12150       10800
 PW_GRID|   G-Rays                                  85.4          90          80
 PW_GRID|   Real Space Points                    11533.0       21870       10935

 PW_GRID| Information for grid number                                          3
 PW_GRID| Number of the reference grid                                         1
 PW_GRID| Grid distributed over                                   128 processors
 PW_GRID| Real space group dimensions                                     8   16
 PW_GRID| the grid is blocked:                                                NO
 PW_GRID| Cutoff [a.u.]                                                     33.3
 PW_GRID| spherical cutoff:                                                   NO
 PW_GRID|   Bounds   1            -37      37                Points:          75
 PW_GRID|   Bounds   2            -37      37                Points:          75
 PW_GRID|   Bounds   3            -24      23                Points:          48
 PW_GRID| Volume element (a.u.^3)  0.5494E-01     Volume (a.u.^3)     14833.7304
 PW_GRID| Grid span                                                    FULLSPACE
 PW_GRID|   Distribution                         Average         Max         Min
 PW_GRID|   G-Vectors                             2109.4        2475        1725
 PW_GRID|   G-Rays                                  28.1          33          23
 PW_GRID|   Real Space Points                     2109.4        2400        1728

 PW_GRID| Information for grid number                                          4
 PW_GRID| Number of the reference grid                                         1
 PW_GRID| Grid distributed over                                   128 processors
 PW_GRID| Real space group dimensions                                     8   16
 PW_GRID| the grid is blocked:                                                NO
 PW_GRID| Cutoff [a.u.]                                                     11.1
 PW_GRID| spherical cutoff:                                                   NO
 PW_GRID|   Bounds   1            -22      22                Points:          45
 PW_GRID|   Bounds   2            -22      22                Points:          45
 PW_GRID|   Bounds   3            -13      13                Points:          27
 PW_GRID| Volume element (a.u.^3)  0.2713         Volume (a.u.^3)     14833.7304
 PW_GRID| Grid span                                                    FULLSPACE
 PW_GRID|   Distribution                         Average         Max         Min
 PW_GRID|   G-Vectors                              427.1         585         270
 PW_GRID|   G-Rays                                   9.5          13           6
 PW_GRID|   Real Space Points                      427.1         486         270

 POISSON| Solver                                                        PERIODIC
 POISSON| Periodicity                                                        XYZ

 RS_GRID| Information for grid number                                          1
 RS_GRID|   Bounds   1           -112     112                Points:         225
 RS_GRID|   Bounds   2           -112     112                Points:         225
 RS_GRID|   Bounds   3            -72      71                Points:         144
 RS_GRID| Real space distribution over                                  8 groups
 RS_GRID| Real space distribution along direction                              1
 RS_GRID| Border size                                                         26
 RS_GRID| Real space distribution over                                 16 groups
 RS_GRID| Real space distribution along direction                              2
 RS_GRID| Border size                                                         26
 RS_GRID|   Distribution                         Average         Max         Min
 RS_GRID|   Planes                                  80.1          81          80
 RS_GRID|   Distribution                         Average         Max         Min
 RS_GRID|   Planes                                  66.1          67          66

 RS_GRID| Information for grid number                                          2
 RS_GRID|   Bounds   1            -67      67                Points:         135
 RS_GRID|   Bounds   2            -67      67                Points:         135
 RS_GRID|   Bounds   3            -40      40                Points:          81
 RS_GRID| Real space distribution over                                  8 groups
 RS_GRID| Real space distribution along direction                              1
 RS_GRID| Border size                                                         24
 RS_GRID| Real space distribution over                                 16 groups
 RS_GRID| Real space distribution along direction                              2
 RS_GRID| Border size                                                         24
 RS_GRID|   Distribution                         Average         Max         Min
 RS_GRID|   Planes                                  64.9          65          64
 RS_GRID|   Distribution                         Average         Max         Min
 RS_GRID|   Planes                                  56.4          57          56

 RS_GRID| Information for grid number                                          3
 RS_GRID|   Bounds   1            -37      37                Points:          75
 RS_GRID|   Bounds   2            -37      37                Points:          75
 RS_GRID|   Bounds   3            -24      23                Points:          48
 RS_GRID| Real space fully replicated
 RS_GRID| Group size                                                           1

 RS_GRID| Information for grid number                                          4
 RS_GRID|   Bounds   1            -22      22                Points:          45
 RS_GRID|   Bounds   2            -22      22                Points:          45
 RS_GRID|   Bounds   3            -13      13                Points:          27
 RS_GRID| Real space fully replicated
 RS_GRID| Group size                                                           1

 Spin 1

 Number of electrons:                                                        768
 Number of occupied orbitals:                                                768
 Number of molecular orbitals:                                               768

 Spin 2

 Number of electrons:                                                        768
 Number of occupied orbitals:                                                768
 Number of molecular orbitals:                                               768

 Number of orbital functions:                                               3328
 Number of independent orbital functions:                                   3328

 Extrapolation method: initial_guess

 *** WARNING in qs_initial_guess.F:306 :: User requested to restart the    ***
 *** wavefunction from the file named: tio2-RESTART.wfn. This file does    ***
 *** not exist. Please check the existence of the file or change properly  ***
 *** the value of the keyword WFN_RESTART_FILE_NAME. Calculation continues ***
 *** using ATOMIC GUESS.                                                   ***


 Atomic guess: The first density matrix is obtained in terms of atomic orbitals
               and electronic configurations assigned to each atomic kind

 Guess for atomic kind: Ti

 Electronic structure
    Total number of core electrons                                         10.00
    Total number of valence electrons                                      12.00
    Total number of electrons                                              22.00
    Multiplicity                                                   not specified
    S   [  2.00  2.00] 2.00  2.00
    P   [  6.00] 6.00
    D      2.00


 *******************************************************************************
                  Iteration          Convergence                     Energy [au]
 *******************************************************************************
                          1         2.59099                     -56.573945749309
                          2        0.737518                     -57.461623245624
                          3        0.123244E-01                 -57.676656834797
                          4        0.338536E-02                 -57.676690535970
                          5        0.252157E-03                 -57.676697146183
                          6        0.162704E-05                 -57.676697160103
                          7        0.846593E-06                 -57.676697160104

 Energy components [Hartree]           Total Energy ::          -57.676697160104
                                        Band Energy ::          -13.440549799540
                                     Kinetic Energy ::           25.008468428381
                                   Potential Energy ::          -82.685165588485
                                      Virial (-V/T) ::            3.306286661467
                                        Core Energy ::          -97.155838374470
                                          XC Energy ::           -6.919409696495
                                     Coulomb Energy ::           46.398550910862
                       Total Pseudopotential Energy ::         -122.259340742080
                       Local Pseudopotential Energy ::         -118.928992669456
                    Nonlocal Pseudopotential Energy ::           -3.330348072625
                                        Confinement ::            0.950339392289

 Orbital energies  State     L     Occupation   Energy[a.u.]          Energy[eV]

                       1     0          2.000      -2.312566          -62.928123
                       2     0          2.000      -0.123060           -3.348633

                       1     1          6.000      -1.385567          -37.703193

                       1     2          2.000      -0.127948           -3.481643


 Total Electron Density at R=0:                                         0.004726

 Guess for atomic kind: O

 Electronic structure
    Total number of core electrons                                          2.00
    Total number of valence electrons                                       6.00
    Total number of electrons                                               8.00
    Multiplicity                                                   not specified
    S   [  2.00] 2.00
    P      4.00


 *******************************************************************************
                  Iteration          Convergence                     Energy [au]
 *******************************************************************************
                          1        0.702811                     -15.577904332270
                          2        0.612408                     -15.588447180504
                          3        0.955344E-02                 -15.655871208406
                          4        0.223754E-02                 -15.655885053552
                          5        0.157183E-02                 -15.655885461027
                          6        0.124953E-02                 -15.655885607150
                          7        0.312011E-06                 -15.655885858066

 Energy components [Hartree]           Total Energy ::          -15.655885858066
                                        Band Energy ::           -2.983128125584
                                     Kinetic Energy ::           11.754765134683
                                   Potential Energy ::          -27.410650992749
                                      Virial (-V/T) ::            2.331875684345
                                        Core Energy ::          -26.153522949072
                                          XC Energy ::           -3.157392363346
                                     Coulomb Energy ::           13.655029454351
                       Total Pseudopotential Energy ::          -37.943026860963
                       Local Pseudopotential Energy ::          -39.220419683052
                    Nonlocal Pseudopotential Energy ::            1.277392822089
                                        Confinement ::            0.347387772086

 Orbital energies  State     L     Occupation   Energy[a.u.]          Energy[eV]

                       1     0          2.000      -0.861522          -23.443215

                       1     1          4.000      -0.315021           -8.572154


 Total Electron Density at R=0:                                         0.000093

 Spin 1
 Re-scaling the density matrix to get the right number of electrons for spin 1
                  # Electrons              Trace(P)               Scaling factor
                          768               768.001                        1.000

 Spin 2
 Re-scaling the density matrix to get the right number of electrons for spin 2
                  # Electrons              Trace(P)               Scaling factor
                          768               768.001                        1.000


 SCF WAVEFUNCTION OPTIMIZATION

  ----------------------------------- OT ---------------------------------------
  Minimizer      : DIIS                : direct inversion
                                         in the iterative subspace
                                         using   7 DIIS vectors
                                         safer DIIS on
  Preconditioner : FULL_SINGLE_INVERSE : inversion of 
                                         H + eS - 2*(Sc)(c^T*H*c+const)(Sc)^T
  Precond_solver : DEFAULT
  stepsize       :    0.08000000                  energy_gap     :    0.08000000
  eps_taylor     :   0.10000E-15                  max_taylor     :             4
  ----------------------------------- OT ---------------------------------------

  Step     Update method      Time    Convergence         Total energy    Change
  ------------------------------------------------------------------------------
     1 OT DIIS     0.80E-01    2.1     0.00996175     -5650.8389957267 -5.65E+03
     2 OT DIIS     0.80E-01    1.6     0.00721164     -5685.2777255112 -3.44E+01
     3 OT DIIS     0.80E-01    1.5     0.00457555     -5717.7881555233 -3.25E+01
     4 OT DIIS     0.80E-01    1.5     0.00363700     -5728.1367845177 -1.03E+01
     5 OT DIIS     0.80E-01    1.5     0.00266083     -5739.2110645113 -1.11E+01
     6 OT DIIS     0.80E-01    1.5     0.00219062     -5746.0748042803 -6.86E+00
     7 OT DIIS     0.80E-01    1.5     0.00184705     -5752.0058911872 -5.93E+00
     8 OT DIIS     0.80E-01    1.5     0.00147381     -5757.8591856410 -5.85E+00
     9 OT DIIS     0.80E-01    1.5     0.00126787     -5761.4097603954 -3.55E+00
    10 OT DIIS     0.80E-01    1.5     0.00098805     -5764.6409269959 -3.23E+00
    11 OT DIIS     0.80E-01    1.5     0.00090101     -5765.4198366541 -7.79E-01
    12 OT DIIS     0.80E-01    1.5     0.00073143     -5767.1531619332 -1.73E+00
    13 OT DIIS     0.80E-01    1.5     0.00059969     -5768.4833010673 -1.33E+00
    14 OT DIIS     0.80E-01    1.5     0.00049885     -5769.3715271636 -8.88E-01
    15 OT DIIS     0.80E-01    1.4     0.00044728     -5769.8532512276 -4.82E-01
    16 OT DIIS     0.80E-01    1.4     0.00038435     -5770.3232851460 -4.70E-01
    17 OT DIIS     0.80E-01    1.5     0.00034150     -5770.6443301064 -3.21E-01
    18 OT DIIS     0.80E-01    1.4     0.00029774     -5770.9583560503 -3.14E-01
    19 OT DIIS     0.80E-01    1.4     0.00026919     -5771.1209716507 -1.63E-01
    20 OT DIIS     0.80E-01    1.4     0.00025540     -5771.2248211884 -1.04E-01
    21 OT DIIS     0.80E-01    1.4     0.00024117     -5771.3793016743 -1.54E-01
    22 OT DIIS     0.80E-01    1.4     0.00022782     -5771.4684263410 -8.91E-02
    23 OT DIIS     0.80E-01    1.4     0.00019437     -5771.6894045830 -2.21E-01
    24 OT DIIS     0.80E-01    1.5     0.00017961     -5771.7833968411 -9.40E-02
    25 OT DIIS     0.80E-01    1.4     0.00019125     -5771.8030751626 -1.97E-02
    26 OT DIIS     0.80E-01    1.5     0.00016876     -5771.8726983914 -6.96E-02
    27 OT DIIS     0.80E-01    1.4     0.00015489     -5771.9295149626 -5.68E-02
    28 OT DIIS     0.80E-01    1.4     0.00013583     -5772.0306935094 -1.01E-01
    29 OT DIIS     0.80E-01    1.4     0.00012274     -5772.0842083722 -5.35E-02
    30 OT DIIS     0.80E-01    1.4     0.00014089     -5772.1050889329 -2.09E-02
    31 OT DIIS     0.80E-01    1.5     0.00012184     -5772.1208387982 -1.57E-02
    32 OT DIIS     0.80E-01    1.4     0.00010387     -5772.1564075293 -3.56E-02
    33 OT DIIS     0.80E-01    1.5     0.00011615     -5772.1630849778 -6.68E-03
    34 OT DIIS     0.80E-01    1.5     0.00009384     -5772.1927494227 -2.97E-02
    35 OT DIIS     0.80E-01    1.4     0.00007767     -5772.2398513173 -4.71E-02
    36 OT DIIS     0.80E-01    1.4     0.00006985     -5772.2683201355 -2.85E-02
    37 OT DIIS     0.80E-01    1.5     0.00006295     -5772.2785284202 -1.02E-02
    38 OT DIIS     0.80E-01    1.5     0.00005937     -5772.2927578369 -1.42E-02
    39 OT DIIS     0.80E-01    1.4     0.00005718     -5772.3037379594 -1.10E-02
    40 OT DIIS     0.80E-01    1.4     0.00005167     -5772.3112940647 -7.56E-03

  Leaving inner SCF loop after reaching    40 steps.


  Electronic density on regular grids:      -1535.9999999999        0.0000000001
  Core density on regular grids:             1535.9999999995       -0.0000000005
  Total charge density on r-space grids:       -0.0000000004
  Total charge density g-space grids:          -0.0000000004

  Overlap energy of the core charge distribution:               0.00000000000390
  Self energy of the core charge distribution:             -12156.89556134359555
  Core Hamiltonian energy:                                   3295.54856639845866
  Hartree energy:                                            4002.04922882076335
  Exchange-correlation energy:                               -928.47059493307609

  DFT+U energy:                                                15.45706699278616

  Total energy:                                             -5772.31129406466061

  outer SCF iter =    1 RMS gradient =   0.52E-04 energy =      -5772.3112940647

  ----------------------------------- OT ---------------------------------------
  Minimizer      : DIIS                : direct inversion
                                         in the iterative subspace
                                         using   7 DIIS vectors
                                         safer DIIS on
  Preconditioner : FULL_SINGLE_INVERSE : inversion of 
                                         H + eS - 2*(Sc)(c^T*H*c+const)(Sc)^T
  Precond_solver : DEFAULT
  stepsize       :    0.08000000                  energy_gap     :    0.08000000
  eps_taylor     :   0.10000E-15                  max_taylor     :             4
  ----------------------------------- OT ---------------------------------------

[...]
 flops    26 x    13 x    32         116249329664       0.0%    100.0%      0.0%     
 flops    13 x    26 x    32         116249329664       0.0%    100.0%      0.0%     
 flops    26 x    26 x    32         118065725440       0.0%    100.0%      0.0%     
 flops    96 x    32 x    32         139318001664       0.0%    100.0%      0.0%     
 flops    13 x    13 x    64         227254370304       0.0%    100.0%      0.0%     
 flops    26 x    13 x    64         232498659328       0.0%    100.0%      0.0%     
 flops    13 x    26 x    64         232498659328       0.0%    100.0%      0.0%     
 flops    26 x    26 x    64         236131450880       0.0%    100.0%      0.0%     
 flops    96 x    64 x    32         278636003328       0.0%    100.0%      0.0%     
 flops    96 x    32 x    64         278636003328       0.0%    100.0%      0.0%     
 flops   416 x    32 x    32         341114355712       0.0%    100.0%      0.0%     
 flops    96 x    64 x    64         557272006656       0.0%    100.0%      0.0%     
 flops   416 x    64 x    32         682228711424       0.0%    100.0%      0.0%     
 flops   416 x    32 x    64         682228711424       0.0%    100.0%      0.0%     
 flops    96 x    32 x   208         831057297408       0.0%    100.0%      0.0%     
 flops   416 x    32 x   208         938500685824       0.0%    100.0%      0.0%     
 flops   416 x    64 x    64        1364457422848       0.0%    100.0%      0.0%     
 flops    13 x    32 x    13        1413378290688       0.0%    100.0%      0.0%     
 flops    26 x    32 x    26        1458787319808       0.0%    100.0%      0.0%     
 flops    26 x    32 x    13        1458787319808       0.0%    100.0%      0.0%     
 flops    13 x    32 x    26        1458787319808       0.0%    100.0%      0.0%     
 flops    96 x    64 x   208        1663259639808       0.0%    100.0%      0.0%     
 flops   416 x    64 x   208        1882672070656       0.0%    100.0%      0.0%     
 flops inhomo. stacks                     2690340     100.0%      0.0%      0.0%
 flops total                        16.860088E+12       0.0%    100.0%      0.0%
 flops max/rank                    173.931247E+09       0.0%    100.0%      0.0%
 matmuls inhomo. stacks                      3890     100.0%      0.0%      0.0%
 matmuls total                          363794694       0.0%    100.0%      0.0%
 number of processed stacks              10434258       0.0%    100.0%      0.0%
 average stack size                                     1.0      34.9       0.0
 marketing flops                    18.341477E+12
 -------------------------------------------------------------------------------
 # multiplications                           5381
 max memory usage/rank             348.188672E+06
 # max total images/rank                        2
 # max 3D layers                                1
 # MPI messages exchanged                19974272
 MPI messages size (bytes):
  total size                         2.020816E+12
  min size                           0.000000E+00
  max size                         692.224000E+03
  average size                     101.170969E+03
 MPI breakdown and total messages size (bytes):
             size <=      128             5762688                   138656
       128 < size <=     8192             1175584               8363929024
      8192 < size <=    32768             4314464              98074861536
     32768 < size <=   131072             4735616             361560334336
    131072 < size <=  4194304             3985920            1552850922480
   4194304 < size <= 16777216                   0                        0
  16777216 < size                               0                        0
 -------------------------------------------------------------------------------

 *** WARNING in dbcsr_mm.F:301 :: Using a non-square number of MPI ranks ***
 *** might lead to poor performance. Used ranks: 128 Suggested: 121 256  ***

 -------------------------------------------------------------------------------
 -                                                                             -
 -                      DBCSR MESSAGE PASSING PERFORMANCE                      -
 -                                                                             -
 -------------------------------------------------------------------------------
 ROUTINE             CALLS      AVE VOLUME [Bytes]
 MP_Bcast               50                     12.
 MP_Allreduce        28218                     24.
 MP_Alltoall         19189                  29059.
 MP_ISend           339044                  50208.
 MP_IRecv           338520                  49699.
 -------------------------------------------------------------------------------

 -------------------------------------------------------------------------------
 -                                                                             -
 -                                DBM STATISTICS                               -
 -                                                                             -
 -------------------------------------------------------------------------------
    M  x    N  x    K                                          COUNT     PERCENT
 -------------------------------------------------------------------------------

 -------------------------------------------------------------------------------
 -                                                                             -
 -                                GRID STATISTICS                              -
 -                                                                             -
 -------------------------------------------------------------------------------
 LP    KERNEL             BACKEND                              COUNT     PERCENT
 5     collocate ortho    CPU                               25128640      25.45%
 5     integrate ortho    CPU                               24814532      25.14%
 6     collocate ortho    CPU                               12819360      12.99%
 6     integrate ortho    CPU                               12659118      12.82%
 4     collocate ortho    CPU                               11413120      11.56%
 4     integrate ortho    CPU                               11270456      11.42%
 0     integrate general  CPU                                 393216       0.40%
 0     collocate general  CPU                                 221184       0.22%
 2     collocate ortho    CPU                                   2560       0.00%
 3     collocate ortho    CPU                                   1536       0.00%
 -------------------------------------------------------------------------------

 MEMORY| Estimated peak process memory [MiB]                                 333

 -------------------------------------------------------------------------------
 ----                             MULTIGRID INFO                            ----
 -------------------------------------------------------------------------------
 count for grid        1:        1286946          cutoff [a.u.]          300.00
 count for grid        2:         980979          cutoff [a.u.]          100.00
 count for grid        3:         794139          cutoff [a.u.]           33.33
 count for grid        4:         536812          cutoff [a.u.]           11.11
 total gridlevel count  :        3598876

 -------------------------------------------------------------------------------
 -                                                                             -
 -                         MESSAGE PASSING PERFORMANCE                         -
 -                                                                             -
 -------------------------------------------------------------------------------

 ROUTINE             CALLS      AVE VOLUME [Bytes]
 MP_Group                4
 MP_Bcast             9145                  17574.
 MP_Allreduce        24281                    439.
 MP_Sync               930
 MP_Alltoall          3294                2052555.
 MP_SendRecv         41656                  11544.
 MP_ISendRecv        40132                  11544.
 MP_Wait             59556
 MP_comm_split         282
 MP_ISend            35216                  77879.
 MP_IRecv            35156                  78009.
 MP_Write_All            6                 355816.
 -------------------------------------------------------------------------------


 -------------------------------------------------------------------------------
 -                                                                             -
 -                           R E F E R E N C E S                               -
 -                                                                             -
 -------------------------------------------------------------------------------
 
 CP2K version 2024.3, the CP2K developers group (2024).
 CP2K is freely available from https://www.cp2k.org/ .
 
 T. D. Kuehne, M. Iannuzzi, M. Del Ben, V. V. Rybkin, P. Seewald, F. Stein, T. 
 Laino, R. Z. Khaliullin, O. Schuett, F. Schiffmann, D. Golze, J. Wilhelm, S. 
 Chulkov, M. H. Bani-Hashemian, V. Weber, U. Borstnik, M. Taillefumier, A. S. 
 Jakobovits, A. Lazzaro, H. Pabst, T. Mueller, R. Schade, M. Guidon, S. 
 Andermatt, N. Holmberg, G. K. Schenter, A. Hehn, A. Bussy, F. Belleflamme, G. 
 Tabacchi, A. Gloess, M. Lass, I. Bethune, C. J. Mundy, C. Plessl, M. Watkins, 
 J. VandeVondele, M. Krack, J. Hutter.
 J. Chem. Phys. 152, 194103 (2020).
 CP2K: An electronic structure and molecular dynamics software package - 
 Quickstep: Efficient and accurate electronic structure calculations.
 https://doi.org/10.1063/5.0007045

 O. Schuett, P. Messmer, J. Hutter, J. VandeVondele.
 Electronic Structure Calculations on Graphics Processing Units, 173-190 (2016).
 GPU-Accelerated Sparse Matrix-Matrix Multiplication for Linear Scaling Density 
 Functional Theory.
 https://doi.org/10.1002/9781118670712.ch8

 A. Heinecke, G. Henry, M. Hutchinson, H. Pabst.
 Proceedings of Intl. Supercomputing Conference, 981-991 (2016).
 LIBXSMM: Accelerating Small Matrix Multiplications by Runtime Code Generation.
 https://doi.org/10.1109/SC.2016.83

 J. Hutter, M. Iannuzzi, F. Schiffmann, J. VandeVondele.
 WIREs Comput Mol Sci. 4, 15-25 (2014).
 CP2K: atomistic simulations of condensed matter systems.
 https://doi.org/10.1002/wcms.1159

 U. Borstnik, J. VandeVondele, V. Weber, J. Hutter.
 Parallel Comput. 40, 47-58 (2014).
 Sparse matrix multiplication: The distributed block-compressed sparse row 
 library.
 https://doi.org/10.1016/j.parco.2014.03.012

 A. Marek, V. Blum, R. Johanni, V. Havu, B. Lang, T. Auckenthaler, A. Heinecke, 
 H. Bungartz, H. Lederer.
 J. Phys. Condens. Matter 26, 213201 (2014).
 The ELPA library: scalable parallel eigenvalue solutions for electronic 
 structure theory and computational science.
 https://doi.org/10.1088/0953-8984/26/21/213201

 J. VandeVondele, J. Hutter.
 J. Chem. Phys. 127, 114105 (2007).
 Gaussian basis sets for accurate calculations on molecular systems in gas and 
 condensed phases.
 https://doi.org/10.1063/1.2770708

 J. VandeVondele, M. Krack, F. Mohamed, M. Parrinello, T. Chassaing, J. Hutter.
 Comput. Phys. Commun. 167, 103-128 (2005).
 QUICKSTEP: Fast and accurate density functional calculations using a mixed 
 Gaussian and plane waves approach.
 https://doi.org/10.1016/j.cpc.2004.12.014

 M. Krack.
 Theor. Chem. Acc. 114, 145-152 (2005).
 Pseudopotentials for H to Kr optimized for gradient-corrected 
 exchange-correlation functionals.
 https://doi.org/10.1007/s00214-005-0655-y

 M. Frigo, S. G. Johnson.
 Proc. IEEE 93, 216-231 (2005).
 The design and implementation of FFTW3.
 https://doi.org/10.1109/JPROC.2004.840301

 J. VandeVondele, J. Hutter.
 J. Chem. Phys. 118, 4365-4369 (2003).
 An efficient orbital transformation method for electronic structure 
 calculations.
 https://doi.org/10.1063/1.1543154

 C. Hartwigsen, S. Goedecker, J. Hutter.
 Phys. Rev. B 58, 3641-3662 (1998).
 Relativistic separable dual-space Gaussian pseudopotentials from H to Rn.
 https://doi.org/10.1103/PhysRevB.58.3641

 S. L. Dudarev, G. A. Botton, S. Y. Savrasov, C. J. Humphreys, A. P. Sutton.
 Phys. Rev. B 57, 1505-1509 (1998).
 Electron-energy-loss spectra and the structural stability of nickel oxide: An 
 LSDA+U study.
 https://doi.org/10.1103/PhysRevB.57.1505

 G. Lippert, J. Hutter, M. Parrinello.
 Mol. Phys. 92, 477-487 (1997).
 A hybrid Gaussian and plane wave density functional scheme.
 https://doi.org/10.1080/002689797170220

 S. L. Dudarev, D. N. Manh, A. P. Sutton.
 Philos. Mag. B 75, 613-628 (1997).
 Effect of Mott-Hubbard correlations on the electronic structure and structural 
 stability of uranium dioxide.
 https://doi.org/10.1080/13642819708202343

 S. Goedecker, M. Teter, J. Hutter.
 Phys. Rev. B 54, 1703-1710 (1996).
 Separable dual-space Gaussian pseudopotentials.
 https://doi.org/10.1103/PhysRevB.54.1703

 J. P. Perdew, K. Burke, M. Ernzerhof.
 Phys. Rev. Lett. 77, 3865-3868 (1996).
 Generalized gradient approximation made simple.
 https://doi.org/10.1103/PhysRevLett.77.3865


 -------------------------------------------------------------------------------
 -                                                                             -
 -                                T I M I N G                                  -
 -                                                                             -
 -------------------------------------------------------------------------------
 SUBROUTINE                       CALLS  ASD         SELF TIME        TOTAL TIME
                                MAXIMUM       AVERAGE  MAXIMUM  AVERAGE  MAXIMUM
 CP2K                                 1  1.0    0.078    0.088  128.448  128.452
 qs_energies                          1  2.0    0.005    0.008  127.899  127.905
 scf_env_do_scf                       1  3.0    0.004    0.007  117.041  117.043
 scf_env_do_scf_inner_loop           79  4.0    0.007    0.024  113.967  114.029
 qs_ks_update_qs_env                 81  5.0    0.001    0.002   55.957   56.100
 rebuild_ks_matrix                   79  6.0    0.002    0.003   55.846   55.988
 qs_ks_build_kohn_sham_matrix        79  7.0    0.021    0.026   55.844   55.986
 sum_up_and_integrate                79  8.0    0.005    0.007   35.120   35.138
 integrate_v_rspace                 158  9.0    0.007    0.010   35.023   35.073
 qs_rho_update_rho_low               80  5.0    0.001    0.002   32.765   32.774
 calculate_rho_elec                 160  6.0    0.059    0.068   32.764   32.773
 dbcsr_multiply_generic            5381  9.3    0.198    0.207   26.399   27.122
 qs_scf_new_mos                      79  5.0    0.001    0.001   26.898   27.101
 qs_scf_loop_do_ot                   79  6.0    0.001    0.002   26.898   27.100
 grid_integrate_task_list           158 10.0   25.253   26.143   25.253   26.143
 ot_scf_mini                         79  7.0    0.003    0.004   25.168   25.316
 grid_collocate_task_list           160  7.0   23.667   24.892   23.667   24.892
 multiply_cannon                   5381 10.3    0.818    0.869   17.636   20.343
 fft_wrap_pw1pw2                   2638 10.3    0.052    0.063   17.383   19.546
 fft_wrap_pw1pw2_300               1672 11.8    0.659    0.726   16.150   18.272
 multiply_cannon_loop              5381 11.3    0.385    0.412   15.377   17.969
 qs_vxc_create                       79  8.0    0.002    0.004   16.600   16.726
 xc_vxc_pw_create                    79  9.0    0.302    0.389   16.598   16.724
 fft3d_ps                          2638 12.3    5.200    5.796   13.686   16.222
 ot_mini                            213  6.7    0.006    0.007   13.769   13.958
 xc_pw_derive                       948 11.0    0.008    0.010   11.222   13.155
 multiply_cannon_multrec          86096 12.3    7.390   11.627    7.408   11.646
 mp_waitall_1                    646684 13.4    7.563   11.088    7.563   11.088
 mp_alltoall_z22v                  2638 14.3    7.035   10.998    7.035   10.998
 qs_ot_get_p                        300  7.1    0.004    0.005   10.347   10.682
 qs_ot_get_derivative               226  8.4    0.001    0.002    9.928   10.034
 multiply_cannon_metrocomm3       86096 12.3    0.209    0.216    5.217    9.392
 density_rs2pw                      160  7.0    0.010    0.012    8.226    9.271
 scf_post_calculation_gpw             1  3.0    0.004    0.007    9.197    9.202
 xc_rho_set_and_dset_create          79 10.0    0.271    0.421    8.623    9.160
 xc_pw_divergence                   158 10.0    0.004    0.005    7.412    8.939
 potential_pw2rs                    158 10.0    0.013    0.015    8.013    8.072
 qs_ot_p2m_diag                     278  8.1    0.066    0.089    7.945    7.994
 cp_dbcsr_syevd                     278  9.1    0.084    0.092    6.771    6.776
 qs_ot_get_derivative_diag          208  9.4    0.005    0.006    6.590    6.694
 yz_to_x                            961 13.4    0.410    0.568    4.026    6.675
 cp_fm_diag_elpa                    152 10.9    0.001    0.002    6.322    6.342
 cp_fm_redistribute_end             282 11.0    3.185    6.282    3.207    6.296
 cp_fm_diag_elpa_base               152 11.9    3.020    6.054    3.036    6.096
 transfer_pw2rs                     634 11.0    0.009    0.010    5.885    5.913
 transfer_rs2pw                     658  7.9    0.011    0.014    4.838    5.787
 make_m2s                         10762 10.3    0.149    0.161    5.345    5.609
 mp_waitany                       15544 11.4    4.056    5.352    4.056    5.352
 x_to_yz                           1033 13.7    0.687    0.876    4.060    5.206
 make_lumo_gpw                        1  4.0    0.002    0.002    5.200    5.202
 ot_eigensolver                       2  5.0    0.003    0.004    5.181    5.182
 make_images                      10762 11.3    0.288    0.310    4.314    4.539
 transfer_pw2rs_300                 160 11.9    2.015    2.144    4.080    4.319
 mp_sum_l                         26080 10.3    2.326    4.126    2.326    4.126
 transfer_rs2pw_300                 166  8.9    1.164    1.689    3.131    4.108
 mp_alltoall_d11v                  4239 11.7    2.538    3.458    2.538    3.458
 apply_preconditioner_dbcsr         234  9.4    0.001    0.001    3.011    3.427
 apply_single                       234 10.4    0.001    0.001    3.010    3.427
 ot_diis_step                        79  9.0    0.015    0.017    3.235    3.237
 write_available_results              1  4.0    0.002    0.003    3.082    3.086
 write_mo_free_results                1  5.0    0.134    0.140    3.041    3.046
 init_scf_loop                        2  4.0    0.003    0.005    3.033    3.039
 mp_irecv_dv                     180525 13.3    0.884    3.005    0.884    3.005
 xc_functional_eval                  79 11.0    0.001    0.003    2.536    2.997
 pbe_lsd_eval                        79 12.0    2.534    2.996    2.534    2.996
 multiply_cannon_metrocomm4       80715 12.3    0.206    0.213    0.977    2.957
 rs_gather_matrices                 158 10.0    0.068    0.084    1.750    2.651
 -------------------------------------------------------------------------------

 The number of warnings for this run is : 3
 
 -------------------------------------------------------------------------------
  **** **** ******  **  PROGRAM ENDED AT                 2025-06-17 07:54:11.359
 ***** ** ***  *** **   PROGRAM RAN ON                                 nid001790
 **    ****   ******    PROGRAM RAN BY                                    cahart
 ***** **    ** ** **   PROGRAM PROCESS ID                                185640
  **** **  *******  **  PROGRAM STOPPED IN /mnt/lustre/a2fs-work2/work/e05/e05/c
                                           ahart/postdoc2/work/group/tio2/anatas
                                           e/cell-441/geo-opt/mp-390/neutral-fro
                                           m-hole/pbe-u-o/u-6.0
