     192
 i =        1, E =     -5770.2382327876
Ti        -0.0027875431        0.0097220312       -0.0056622971
Ti        -0.0089715763       -0.0041824516       -0.0199681772
Ti        -0.0067558541       -0.0014274337       -0.0144564486
Ti        -0.0077634483        0.0104335823        0.0136787679
Ti        -0.0066205777       -0.0007817056        0.0166768309
Ti         0.0035660808        0.0022415115        0.0013887957
Ti         0.0038782874       -0.0015200005       -0.0255710175
Ti        -0.0004383356        0.0063727083        0.0031117333
Ti         0.0017130897       -0.0129411430       -0.0029847661
Ti        -0.0114562324       -0.0021436401       -0.0022474348
Ti        -0.0151905892        0.0003031343        0.0006774934
Ti        -0.0103885749       -0.0084606942        0.0011598129
Ti         0.0011886422       -0.0036689157       -0.0044868990
Ti         0.0137984881        0.0051850220        0.0224919180
Ti        -0.0132474635        0.0077592593        0.0078359251
Ti         0.0039465237        0.0196025013       -0.0164725538
Ti        -0.0017138069        0.0056342206       -0.0189254290
Ti        -0.0011271208       -0.0107693699       -0.0084345728
Ti         0.0061402851        0.0061198041       -0.0002781104
Ti         0.0131723549        0.0077219559       -0.0270091940
Ti        -0.0121095157        0.0109756248       -0.0079646701
Ti         0.0008731720       -0.0106861712       -0.0305544744
Ti        -0.0033706618       -0.0136044495       -0.0084757956
Ti        -0.0090405812        0.0132921050       -0.0010661542
Ti         0.0006570221       -0.0054143466        0.0102768088
Ti        -0.0026242170       -0.0043785091        0.0102982811
Ti         0.0024686708        0.0009886345        0.0100615376
Ti         0.0172392608        0.0081477706        0.0323297965
Ti         0.0160622046       -0.0036195152        0.0027171969
Ti        -0.0121645307        0.0231705431       -0.0090194026
Ti         0.0106851445       -0.0077353919        0.0004629302
Ti        -0.0003161955       -0.0015855416        0.0097148833
Ti         0.0005964406        0.0054724801       -0.0077942123
Ti         0.0044819599        0.0197327172        0.0055997560
Ti         0.0140316493       -0.0106793030       -0.0116251476
Ti         0.0032463674        0.0016366824       -0.0135748416
Ti         0.0022915078        0.0055753574       -0.0012501152
Ti        -0.0042761524       -0.0027549028        0.0030270338
Ti        -0.0036236233       -0.0046380740       -0.0134187946
Ti        -0.0101013555        0.0153981377       -0.0007095942
Ti        -0.0064515284       -0.0104254076       -0.0070247407
Ti         0.0072208227        0.0149846403        0.0068560873
Ti         0.0094489868        0.0078401014        0.0023445482
Ti         0.0065493855        0.0149907780        0.0085559182
Ti         0.0018459221        0.0094783999       -0.0196720067
Ti        -0.0006550728        0.0106485101       -0.0071828892
Ti         0.0030060922        0.0064793201       -0.0021854206
Ti        -0.0057619684        0.0380024687        0.0080741725
Ti        -0.0083221864       -0.0003570794        0.0170960047
Ti        -0.0123907028        0.0094493232        0.0052162530
Ti        -0.0042128791        0.0019039256        0.0121737405
Ti         0.0120801254       -0.0005825785       -0.0154830176
Ti         0.0127645178        0.0073438796       -0.0068080306
Ti         0.0035701740       -0.0058271192        0.0045245788
Ti        -0.0173887150        0.0085920543        0.0015179411
Ti        -0.0011764079        0.0054304298       -0.0029705047
Ti        -0.0011995295        0.0009611484        0.0001834942
Ti         0.0078280238       -0.0074298551       -0.0016810877
Ti         0.0136138019       -0.0037552165        0.0036597310
Ti        -0.0143404085       -0.0054934297        0.0093981941
Ti         0.0025380175        0.0058140755       -0.0050243982
Ti        -0.0024742860        0.0027218348        0.0075914342
Ti        -0.0035433530        0.0066458995        0.0045131942
Ti        -0.0134869228        0.0081391701        0.0080359622
O         0.0001547140       -0.0008528272       -0.0091910581
O         0.0083185998       -0.0042740686        0.0165240533
O         0.0154338842       -0.0027676879        0.0046904926
O         0.0026867698       -0.0038919158       -0.0082710783
O         0.0003539277        0.0028870197       -0.0036480638
O         0.0053182093        0.0002280207       -0.0030061806
O         0.0055322080       -0.0113525755        0.0015298992
O         0.0171092268       -0.0005493124        0.0071549574
O        -0.0027369664       -0.0069599049       -0.0066078983
O        -0.0014529630       -0.0192065977        0.0000695785
O        -0.0140559125        0.0000328540        0.0143495315
O        -0.0202338152        0.0043274532       -0.0049444854
O        -0.0073930633        0.0102132782        0.0066472982
O         0.0010089383        0.0030897310        0.0076498432
O        -0.0013583241        0.0052052139       -0.0004578184
O         0.0142971386       -0.0001601747        0.0043175154
O         0.0005388368       -0.0042039557       -0.0032220772
O        -0.0015724340        0.0041548543       -0.0075293687
O         0.0085927740        0.0094273307       -0.0063381743
O         0.0074598826        0.0031569749        0.0143758012
O        -0.0025411879        0.0106652157        0.0175184988
O        -0.0023386195       -0.0057421573        0.0005362134
O        -0.0040616919       -0.0139547588        0.0024326515
O        -0.0013173452        0.0158010881        0.0088104603
O         0.0016021113       -0.0048904372        0.0020696030
O        -0.0117512626        0.0005046239        0.0155629062
O         0.0210432251        0.0050680284        0.0012377947
O         0.0011374077       -0.0016655656       -0.0074780681
O         0.0068970943       -0.0005874264       -0.0059020300
O        -0.0012252168       -0.0064151608       -0.0022283150
O         0.0040025911       -0.0060939840       -0.0064013805
O        -0.0010089828        0.0026526883       -0.0220457837
O        -0.0007042814       -0.0154496045       -0.0021103732
O         0.0043998950        0.0033267275       -0.0052498329
O         0.0114224545       -0.0002417342       -0.0076128580
O        -0.0150348342        0.0008987027        0.0080582041
O         0.0045856163        0.0077677424        0.0072126867
O         0.0001409763       -0.0021235066        0.0091472599
O        -0.0086184449       -0.0067655261       -0.0068079099
O        -0.0252561809        0.0025085653        0.0114130444
O        -0.0014417665       -0.0111440303        0.0097140763
O        -0.0050458998        0.0168402938       -0.0024790304
O         0.0065824902       -0.0053144002       -0.0017805874
O         0.0043584779        0.0007978465        0.0043795265
O        -0.0152309307        0.0000924166        0.0041377490
O         0.0107095001        0.0050986016       -0.0110454706
O        -0.0071400474       -0.0009574872       -0.0086588113
O         0.0003515142       -0.0011760440        0.0008126613
O        -0.0069710514       -0.0126281619       -0.0054003713
O         0.0041823590       -0.0182652134        0.0031998645
O         0.0046347133       -0.0008111656        0.0007965686
O         0.0013494665       -0.0007807994       -0.0043663584
O        -0.0024836457       -0.0150806135        0.0037057377
O         0.0013844489       -0.0001066829       -0.0074602187
O        -0.0147044631       -0.0052775367        0.0044758377
O        -0.0010131778       -0.0007618158        0.0002408597
O         0.0020834668        0.0120399600       -0.0059654434
O         0.0098349496       -0.0003009131        0.0027747327
O         0.0112584157        0.0009577027       -0.0000786714
O         0.0019119492       -0.0047546258        0.0062274054
O        -0.0016336861        0.0006096698        0.0049685932
O        -0.0089222190       -0.0116263473        0.0050719043
O         0.0068676686        0.0039145452       -0.0040886641
O        -0.0090917716       -0.0000560725       -0.0018704344
O        -0.0027757530        0.0061207322        0.0030183144
O         0.0119764356       -0.0197825854        0.0094812464
O         0.0027040975       -0.0041845286        0.0048180806
O        -0.0038257959        0.0014869889        0.0086544046
O         0.0040226768       -0.0030922531       -0.0007823222
O        -0.0079581657       -0.0067466391       -0.0000724937
O         0.0079620336        0.0005418572        0.0008803131
O         0.0069489886        0.0058641142        0.0122653625
O         0.0015445628       -0.0373385204        0.0069987245
O         0.0031166497        0.0007436854        0.0035853510
O        -0.0041308791        0.0072873330       -0.0006596478
O         0.0047837060        0.0007863379        0.0035140481
O        -0.0020152115       -0.0147014786        0.0048803651
O         0.0008285820        0.0018272062       -0.0090082960
O         0.0191647539       -0.0054020669        0.0042411067
O        -0.0144250658       -0.0016867248        0.0007311544
O        -0.0020336563       -0.0150613889        0.0068424813
O        -0.0010538054       -0.0135422785        0.0074492818
O         0.0033538927        0.0006632341        0.0013199246
O        -0.0060280052       -0.0021005363       -0.0124129551
O         0.0022233478       -0.0041454548       -0.0265532862
O         0.0002568804       -0.0015647246        0.0031179809
O        -0.0236518863        0.0004585411        0.0004865951
O         0.0012469895       -0.0032092422        0.0045328718
O         0.0022857257       -0.0067800140        0.0125900908
O        -0.0005281987       -0.0016434881        0.0080788196
O         0.0054797425        0.0010975382       -0.0041822158
O         0.0056647928        0.0052380937       -0.0069450162
O        -0.0139165742       -0.0033033351       -0.0039637423
O         0.0001896883        0.0057405196       -0.0097617059
O         0.0073940410        0.0051947236        0.0067103804
O        -0.0077924380       -0.0099282820       -0.0076908112
O         0.0045303780        0.0167729812       -0.0059705955
O         0.0088757846        0.0009695886        0.0059305660
O        -0.0007072502        0.0088332331       -0.0094385183
O         0.0004164711        0.0076385262       -0.0001302284
O         0.0059998163        0.0000306314        0.0021830063
O        -0.0078385266       -0.0019382970       -0.0058492887
O        -0.0026375188       -0.0089962217        0.0022751895
O         0.0020760228        0.0028545871        0.0034684633
O        -0.0025967518        0.0074964495       -0.0029549608
O        -0.0009460810       -0.0097063094        0.0050855998
O        -0.0069945231        0.0048281414        0.0026438544
O        -0.0016914286       -0.0060575756        0.0067236104
O        -0.0028173645        0.0051176061        0.0020089534
O         0.0002975486        0.0119529953        0.0048044096
O         0.0063993386        0.0033575723        0.0074902363
O         0.0231862324       -0.0016008141        0.0101771646
O        -0.0000492899        0.0043144706        0.0002322565
O        -0.0113671008       -0.0020019082        0.0011922956
O         0.0063390419       -0.0012368368       -0.0125155036
O        -0.0020117446       -0.0025291048        0.0038766386
O        -0.0086648509        0.0049400629       -0.0034403847
O         0.0021536278        0.0025238763        0.0052864951
O         0.0066740757       -0.0029347812        0.0057875142
O        -0.0012187701        0.0056519757        0.0023840483
O        -0.0052853121       -0.0145661511        0.0027124534
O         0.0024823705       -0.0332897316       -0.0025299997
O         0.0244129747        0.0013451211        0.0004377580
O        -0.0041637114        0.0059405498       -0.0066500199
O         0.0046711606       -0.0014867440       -0.0050150847
O         0.0012155987       -0.0126672090        0.0035161584
O        -0.0213457703        0.0000793070       -0.0073628705
O        -0.0054026523       -0.0043584637        0.0028480195
     192
 i =        2, E =     -5770.3471026099
Ti        -0.0010275094        0.0042557388        0.0032643983
Ti         0.0008445298       -0.0026417024       -0.0069068112
Ti        -0.0060926654       -0.0021615039       -0.0133671796
Ti         0.0009710848        0.0177189000        0.0051616042
Ti         0.0005738179       -0.0053526944        0.0061449459
Ti        -0.0040544037        0.0074456105       -0.0026086680
Ti         0.0011974577        0.0051839619       -0.0045823147
Ti        -0.0003477201        0.0083089334        0.0059221118
Ti        -0.0050255101       -0.0082378680       -0.0032603657
Ti        -0.0034585371       -0.0018451705       -0.0073137975
Ti        -0.0083638072        0.0006921419        0.0007021874
Ti        -0.0003035238       -0.0000153836       -0.0062203784
Ti         0.0046617559       -0.0039762818       -0.0032276017
Ti         0.0040428825        0.0114424155        0.0129707879
Ti        -0.0106740617        0.0085542262        0.0040041172
Ti        -0.0013822756        0.0158643422       -0.0096114279
Ti        -0.0011602525        0.0007213443       -0.0104529754
Ti        -0.0013370202        0.0002282770       -0.0039645884
Ti         0.0104554128        0.0036397238        0.0005055674
Ti         0.0027434017       -0.0032878396       -0.0169611992
Ti        -0.0072672918        0.0067242938       -0.0111478388
Ti        -0.0088070426       -0.0111856689       -0.0098310066
Ti         0.0010895017       -0.0032450826        0.0028255135
Ti        -0.0096674989        0.0132339555        0.0007517645
Ti        -0.0064010804       -0.0013929844        0.0034018581
Ti        -0.0055120784       -0.0001383279        0.0062500607
Ti         0.0033956974        0.0085154781       -0.0002272588
Ti         0.0032495754        0.0109974809        0.0106347267
Ti         0.0080553935        0.0033418738        0.0077235603
Ti        -0.0021696392        0.0169864157       -0.0059562915
Ti         0.0045113568       -0.0023184264        0.0021843704
Ti        -0.0036904008       -0.0028879328        0.0053715244
Ti         0.0114833468        0.0026978958       -0.0105269830
Ti        -0.0041261586        0.0141399250       -0.0041734566
Ti         0.0073518092       -0.0067971347       -0.0069220933
Ti         0.0188356872       -0.0057420600       -0.0121649515
Ti         0.0019347278        0.0014810794        0.0072191296
Ti        -0.0006952734        0.0007027937        0.0025858952
Ti        -0.0049388198        0.0016014157       -0.0052849081
Ti        -0.0021616675        0.0060564005       -0.0007095888
Ti        -0.0094703448        0.0000187127        0.0032887813
Ti         0.0066645035        0.0080232723        0.0063118975
Ti         0.0085245840        0.0023863094        0.0040652428
Ti         0.0009197354        0.0039590802        0.0048726083
Ti        -0.0003990630       -0.0017473539       -0.0101046034
Ti        -0.0004043191        0.0036519053       -0.0041341726
Ti         0.0079954425        0.0029450606       -0.0070572775
Ti         0.0052970617        0.0180348272       -0.0022573501
Ti        -0.0041159769        0.0057941338        0.0169558103
Ti        -0.0092955979        0.0042807110       -0.0000316027
Ti        -0.0097124611        0.0027232801        0.0085846796
Ti        -0.0015153545       -0.0002908470       -0.0047433305
Ti         0.0073768716        0.0018703856       -0.0047209882
Ti         0.0042296181       -0.0061983577       -0.0035980309
Ti        -0.0049790126       -0.0020754076        0.0037067571
Ti         0.0046526266        0.0070787127       -0.0044960405
Ti        -0.0070613006        0.0010021080       -0.0026654527
Ti         0.0071634466       -0.0069149856       -0.0001234864
Ti         0.0058080971        0.0017789643        0.0039964512
Ti        -0.0064522182       -0.0060954506        0.0053046730
Ti        -0.0037598824       -0.0036661727        0.0041746144
Ti        -0.0014404531       -0.0054521283        0.0022256987
Ti         0.0027104609        0.0008367281        0.0058484269
Ti        -0.0065952870        0.0079325991        0.0041802035
O        -0.0011742552        0.0132207961       -0.0017405609
O         0.0025032189       -0.0010623480        0.0061693444
O         0.0017905196       -0.0042834763        0.0055733133
O         0.0074649396        0.0011925915        0.0024484737
O        -0.0010340561       -0.0027864648       -0.0072481200
O         0.0027241145       -0.0086025214        0.0048001745
O         0.0018359638       -0.0018734073        0.0006892421
O         0.0050855711       -0.0020059148        0.0003422967
O         0.0008094294       -0.0025035115       -0.0044336369
O        -0.0037632123       -0.0139961693       -0.0006994476
O        -0.0081159976       -0.0001908554        0.0114902989
O        -0.0058836371       -0.0028924915       -0.0034233849
O        -0.0046107440        0.0008792112        0.0057557277
O        -0.0019551169       -0.0012537680       -0.0028555585
O         0.0081038335       -0.0016442674        0.0016706870
O         0.0022681615       -0.0018096269        0.0044432939
O         0.0028227913       -0.0026362902       -0.0010039243
O         0.0050420319       -0.0022574155       -0.0036314197
O         0.0011842104        0.0030498937       -0.0002064495
O         0.0073106439        0.0025385791        0.0091692266
O        -0.0023319600        0.0066237384        0.0066952351
O        -0.0022798476       -0.0078509557        0.0033931501
O        -0.0006659075       -0.0082518145        0.0027429462
O        -0.0003276360        0.0074576402        0.0046142204
O        -0.0051412716       -0.0039308966        0.0038676076
O        -0.0032903640        0.0031577414        0.0052631901
O         0.0057773572       -0.0022043042       -0.0034806043
O         0.0053231147       -0.0011782419       -0.0001834893
O         0.0003400177        0.0062794584       -0.0056415144
O        -0.0057456966        0.0055151363       -0.0025469348
O         0.0030580189       -0.0027947348       -0.0066932073
O         0.0014736859       -0.0019891970       -0.0118153998
O         0.0004268652       -0.0145034084       -0.0018146759
O        -0.0016038888        0.0036964857       -0.0025673860
O         0.0075271247        0.0015456866       -0.0018685125
O        -0.0045074672       -0.0007432216        0.0063272750
O         0.0003123384       -0.0075807858        0.0035395462
O        -0.0009225480        0.0015058370        0.0025608462
O        -0.0088859440       -0.0013582544       -0.0020503379
O        -0.0039193248        0.0001162001        0.0027021738
O        -0.0040976728       -0.0096773023        0.0045321373
O        -0.0004402465       -0.0024948270       -0.0029072717
O        -0.0005342499        0.0074037778       -0.0009553571
O        -0.0011107295       -0.0162784829        0.0018332747
O        -0.0047280972        0.0032473486       -0.0044201006
O         0.0011409461       -0.0012594657        0.0075787474
O         0.0000300726       -0.0004729391       -0.0067380328
O         0.0129366117       -0.0018446502        0.0029927342
O        -0.0021564393       -0.0167353286       -0.0059273042
O         0.0041906061       -0.0031733243       -0.0104838165
O         0.0035429581       -0.0005011410       -0.0060284767
O        -0.0031445965       -0.0039873767       -0.0008205359
O         0.0019511100       -0.0158105661       -0.0001500459
O         0.0018935962       -0.0001043255       -0.0049439848
O        -0.0101385134       -0.0045552981        0.0054653600
O        -0.0050306738       -0.0011029811        0.0060953732
O         0.0016950166        0.0025160822        0.0054332574
O        -0.0014813714       -0.0003473987        0.0039264557
O         0.0023058293       -0.0044752218        0.0058421963
O        -0.0094883743       -0.0032543173       -0.0020087070
O         0.0030353607       -0.0037092768       -0.0017092607
O        -0.0068037489        0.0090468353       -0.0048519316
O        -0.0110895588       -0.0040507880        0.0022258189
O        -0.0077489276       -0.0034500745        0.0017003791
O        -0.0052839899        0.0040835233        0.0085900962
O         0.0024984771        0.0007611168        0.0003558738
O        -0.0083558474        0.0021522037        0.0009464860
O         0.0009752267       -0.0001738644       -0.0050965816
O         0.0001878421       -0.0105812936        0.0065415392
O        -0.0038112820        0.0090269879       -0.0053470119
O         0.0054088328        0.0007100031       -0.0012895248
O        -0.0096560711       -0.0001829341        0.0057911313
O         0.0042652879       -0.0024040704        0.0034690901
O         0.0035609590        0.0059622397       -0.0034531723
O        -0.0054172445        0.0004752382        0.0008535878
O         0.0012652715        0.0041226232        0.0078277207
O        -0.0028942699       -0.0108813111        0.0052245588
O         0.0003243905       -0.0014571770        0.0012527816
O         0.0130963306       -0.0002508646       -0.0009763609
O        -0.0080840362       -0.0015960046       -0.0032164830
O         0.0016037415       -0.0036308300        0.0046065136
O        -0.0007258670       -0.0133047616        0.0027400622
O        -0.0009952937        0.0030442588        0.0071192150
O        -0.0064121097        0.0005791226       -0.0002466043
O        -0.0012476465       -0.0022682203       -0.0156695235
O         0.0020262834        0.0002554659        0.0037411907
O         0.0010907660        0.0019938512       -0.0053710523
O         0.0112330204       -0.0008974910        0.0058537951
O        -0.0009340847        0.0091260766       -0.0058971316
O         0.0004360978        0.0017018074        0.0074174462
O         0.0006940979        0.0016905592        0.0000578474
O        -0.0005143935       -0.0121610730        0.0035433671
O        -0.0010766226       -0.0043883018        0.0020810557
O         0.0071819054        0.0043894216       -0.0018507591
O         0.0003537966        0.0019047841        0.0042037623
O         0.0027730485        0.0004952308       -0.0049454762
O        -0.0000120406        0.0098916205       -0.0065483965
O         0.0034640341       -0.0028636267        0.0001842589
O         0.0066176132        0.0026712946       -0.0050472277
O         0.0033008395        0.0001730498       -0.0005758656
O         0.0006177262       -0.0077585341       -0.0048572492
O        -0.0004059911       -0.0053538124       -0.0026438564
O         0.0117587058       -0.0026932110        0.0061408891
O         0.0020765384       -0.0038151030        0.0001482099
O         0.0001230294       -0.0023891240        0.0021446507
O        -0.0042126131       -0.0084888956       -0.0021779872
O        -0.0006506152        0.0019565349        0.0025095983
O        -0.0026197847       -0.0007376474        0.0053680758
O         0.0033875447       -0.0017885224       -0.0011174045
O         0.0005867188       -0.0044312365       -0.0001819638
O        -0.0019432240        0.0021134510       -0.0000993696
O         0.0131250640       -0.0042456865       -0.0034747725
O         0.0002910704        0.0023914336        0.0043195936
O        -0.0022618886       -0.0025706078        0.0017178951
O         0.0056701184        0.0002238708        0.0007303157
O        -0.0052484733        0.0047068095        0.0049273086
O         0.0005782204        0.0022570401        0.0012141149
O        -0.0031714950        0.0038097589        0.0016229137
O         0.0036928504       -0.0002254527       -0.0096812019
O        -0.0062686096        0.0073777310        0.0008396818
O        -0.0027837361        0.0035711338        0.0016971572
O        -0.0036353139       -0.0129299676       -0.0087086094
O         0.0145505477        0.0031367607        0.0031150927
O         0.0008891637        0.0022822219       -0.0005516513
O         0.0001690312        0.0030060330       -0.0022744099
O        -0.0002729012       -0.0012593383        0.0023687681
O        -0.0074567846       -0.0010561864       -0.0022508039
O         0.0034440644        0.0005532954        0.0010416237
     192
 i =        3, E =     -5770.3893518703
Ti        -0.0009067547        0.0008847185        0.0039150705
Ti         0.0026366452       -0.0015184264       -0.0032600151
Ti        -0.0045582619       -0.0045951394       -0.0087076355
Ti         0.0016598394        0.0145687200        0.0005021517
Ti         0.0029197420       -0.0002869852        0.0017776734
Ti        -0.0043191768        0.0084400254       -0.0040857176
Ti        -0.0024488587        0.0026972457       -0.0048777763
Ti        -0.0004114092        0.0033680069        0.0038159738
Ti        -0.0055994074       -0.0039701027       -0.0025363274
Ti        -0.0000583458       -0.0040173270       -0.0055353471
Ti        -0.0062333482       -0.0008740403       -0.0006337724
Ti         0.0021971664        0.0013275815       -0.0034464223
Ti         0.0054066553       -0.0039345558       -0.0031183810
Ti         0.0044491543        0.0114898624        0.0072859029
Ti        -0.0067619285        0.0072629889        0.0004278054
Ti        -0.0023971718        0.0129076209       -0.0041708548
Ti        -0.0013884783       -0.0003551195       -0.0033355713
Ti         0.0007884784        0.0005263929        0.0012278912
Ti         0.0087438072        0.0046468024       -0.0030129436
Ti         0.0025998192       -0.0065842934       -0.0082471680
Ti        -0.0036139791        0.0006630373       -0.0080597156
Ti        -0.0097212185       -0.0114499500       -0.0027635919
Ti         0.0020386710       -0.0010637414        0.0065454973
Ti        -0.0081287478        0.0093165860       -0.0004495926
Ti        -0.0058019505       -0.0008034328        0.0018468542
Ti        -0.0075179562        0.0033514948        0.0015647023
Ti         0.0026862246        0.0061690993       -0.0004275904
Ti         0.0011542041        0.0065286212        0.0050264668
Ti         0.0049249662        0.0040984167        0.0048817438
Ti         0.0007624799        0.0103157852        0.0003103952
Ti         0.0005427571       -0.0005854305        0.0009525197
Ti        -0.0023956283       -0.0012316463        0.0042561461
Ti         0.0088500576        0.0029524400       -0.0043416456
Ti        -0.0051117912        0.0066300964        0.0007220054
Ti         0.0042202092       -0.0039130619       -0.0063054172
Ti         0.0164292579       -0.0056260419       -0.0042517286
Ti         0.0003539143        0.0006830082        0.0028975124
Ti        -0.0010644556       -0.0001566416        0.0047206503
Ti        -0.0024937285        0.0013782445       -0.0039573974
Ti        -0.0009850701        0.0069593213        0.0005275084
Ti        -0.0129605546        0.0026610861        0.0051811659
Ti         0.0050662694        0.0054419542        0.0019924590
Ti         0.0110441177        0.0001125681       -0.0039029758
Ti        -0.0005967992        0.0033301856        0.0027149516
Ti        -0.0000354572       -0.0043760347       -0.0057898963
Ti        -0.0034859603       -0.0009892700       -0.0014186729
Ti         0.0090547547        0.0018670065       -0.0038383145
Ti         0.0013163700        0.0107697397       -0.0010543292
Ti        -0.0026152916        0.0068644711        0.0084204826
Ti        -0.0052356788        0.0029338058       -0.0014256813
Ti        -0.0073940283        0.0034425641        0.0047684233
Ti        -0.0032756157       -0.0026054701       -0.0004661923
Ti         0.0020334916        0.0008667260       -0.0018883070
Ti         0.0024287639       -0.0032877737       -0.0033586585
Ti        -0.0006610148       -0.0038732861        0.0034315525
Ti         0.0052285569        0.0040654912       -0.0029892767
Ti        -0.0036982351        0.0018449496       -0.0003348063
Ti         0.0050454910       -0.0087256397       -0.0003576891
Ti         0.0030895776        0.0024849984        0.0005660123
Ti        -0.0032549513       -0.0040996681        0.0034257939
Ti        -0.0048128208       -0.0004494339        0.0052304401
Ti        -0.0001329364       -0.0076404829        0.0025107317
Ti         0.0038800528        0.0008267716        0.0009171219
Ti        -0.0039135413        0.0065644507        0.0016528858
O        -0.0012538226        0.0059222045        0.0042915345
O        -0.0012445384       -0.0040377650        0.0041422301
O        -0.0030596940       -0.0007921844        0.0045310827
O         0.0017410185        0.0009644300        0.0023267812
O         0.0019058349       -0.0021163536       -0.0031659152
O         0.0017149595       -0.0045698203        0.0044908838
O         0.0041606428       -0.0027082366        0.0043954569
O         0.0058355837        0.0005622731       -0.0005997293
O         0.0025942894       -0.0046804487       -0.0025010641
O        -0.0025115942       -0.0040416006       -0.0004641941
O        -0.0000834277        0.0004532808        0.0025702936
O         0.0006525809       -0.0013128876        0.0013040279
O        -0.0004665849        0.0000062881        0.0023904580
O        -0.0029318370       -0.0003858744       -0.0016611924
O         0.0053215913       -0.0017297669        0.0011098376
O         0.0026935109       -0.0013434275        0.0012875634
O         0.0010895378       -0.0009690266       -0.0021717940
O         0.0025962510       -0.0017689928       -0.0021836734
O        -0.0038817915        0.0014922916        0.0010506471
O         0.0046631685        0.0011839057        0.0052785550
O         0.0032179987        0.0010661124        0.0031498763
O         0.0042231379       -0.0036801653        0.0047407957