     192
 i =        1, E =     -5770.2382327876
Ti        -0.0687585330        0.0838979066        0.0665936261
Ti         1.8666662304        1.9272706699        4.8994259599
Ti         0.0384676167        2.0403264274        2.5272800770
Ti         1.8643534907       -0.0298534765        7.1756192349
Ti        -0.0241289584        3.8242216528       -0.0536049441
Ti         1.9306131277       13.1879560944        4.8357158845
Ti        11.2919893358        1.9871175126        2.4487703385
Ti         5.6111925411       -0.0914056854        7.2210287285
Ti         1.8967572073        3.8218009812        7.2347841461
Ti         0.0279257764       13.3391014223        2.4652522424
Ti         5.6724828955        1.8265517547        4.8238064823
Ti        11.3139699651        0.1103633443       -0.0456048589
Ti         3.6807619422        0.0920574519        0.0443378660
Ti        13.1203885105        1.7721080656        4.7080131616
Ti        13.2565050857       -0.0539223845        7.1524868067
Ti         3.7503501074        1.8136804490        2.5257498882
Ti         1.9684646633        5.6353976175        4.8515450374
Ti         0.0049019865       11.5603946687        0.0067020592
Ti        -0.0092708876        5.7312395409        2.4892266105
Ti         1.8938458789       11.3200775042        7.3385324132
Ti         0.0938267238        7.5249044965        0.0562307373
Ti         2.0335935444        9.5134752677        4.9100094556
Ti         7.5129040967        1.9648669117        2.3599175210
Ti         9.4540119329       -0.1359206397        7.2213627739
Ti         1.9355217141        7.5689423564        7.1654260539
Ti         0.1295266358        9.5686891185        2.4711047895
Ti         9.3321379517        1.8136401759        4.7574607802
Ti         7.4632174190       -0.0690434911       -0.0830245276
Ti         3.7279663255        3.7851913430       -0.0101558445
Ti        13.2348424910       13.1404006040        4.7516646361
Ti        11.3784109391        5.7313812047        2.3878836859
Ti         5.6872167323       11.3241045678        7.1532055351
Ti        13.1840043235        3.6740199228        7.2348861241
Ti         3.7742165147       13.1677329833        2.4401813342
Ti         5.6733872182        5.7230330278        4.8509583041
Ti        11.2258860925       11.4013959557        0.0973003789
Ti        11.2785560806       13.3312856789        2.3580630677
Ti         5.6525543712        3.7366749353        7.1329470121
Ti         3.8947996613       11.4324152696        0.0490507121
Ti        13.2893716386        5.5856545937        4.9035115520
Ti         5.7944265867       13.2081897098        4.8093266759
Ti        11.2713291593        3.7703375494       -0.0740819179
Ti        13.0896457825       11.3871973499        7.2635319066
Ti         3.7831173027        5.6189949372        2.3908738178
Ti         3.8057894743        7.5322072491        0.0443789898
Ti        13.2979768958        9.4186524597        4.8451094282
Ti         7.5282481286        5.6804125783        2.3842689674
Ti         9.4415289582       11.1442655276        7.1754060249
Ti        13.3032578958        7.5602681929        7.2174086782
Ti         3.8946434579        9.4498891317        2.3486920722
Ti         9.5175285897        5.5607237488        4.7093679800
Ti         7.5281896654       11.3434236856        0.0737698232
Ti        11.3898715869        9.4433195507        2.4164898500
Ti         5.6675690121        7.5977673566        7.1949613332
Ti         5.7813590897        9.4189924968        4.7447619834
Ti        11.3004920602        7.5857545056        0.0092048576
Ti         9.4246950540        3.6581310498        7.1633825553
Ti         7.5416421074       13.2929178820        2.4019726757
Ti         7.4666810425        3.8017873933       -0.0601311438
Ti         9.5189907556       13.2497191352        4.7769862610
Ti         7.5823630494        7.5413073312       -0.0515991704
Ti         9.5203974217        9.3796715755        4.7577435566
Ti         7.6452828743        9.4202989652        2.3281015305
Ti         9.5145549307        7.3786706616        7.1373462303
O         0.0578863890        0.0868527750        2.1052220477
O         1.6808865728        1.9426325550        6.7331140230
O        -0.0724371120        1.9980696491        4.4086866298
O         1.7992330645        0.1481761000        9.2376547449
O         1.8112228102       -0.0163719949        5.2613669227
O        -0.1402164646        1.9985773797        0.5013470452
O         1.8593011619        2.1682422577        2.8368151299
O        -0.0772005973       -0.0498958058        7.6193936826
O        -0.0341579775        3.9183447155        2.0779405362
O         1.9996694428       13.2797843459        6.8177776983
O        11.2929377021        1.8285732343        4.3063275849
O         5.6347600075       -0.0228561980        9.2620744835
O         2.1064946716        3.7587084879        5.1827718256
O         0.0478012424       13.3667748585        0.4470395692
O         5.6364970489        1.8401398665        2.8318988162
O        11.2714362595        0.0656969747        7.5727584341
O         3.7172377643        0.1101521266        7.6976036380
O        13.1888759034        1.8733480502        2.8385033999
O        13.1767039747       -0.1020709119        9.2040024655
O         3.7070075378        1.6569696285        4.3705756646
O         1.9178048379        5.6199182140        6.7328204850
O         0.0611453152       11.4432007366        1.9223501895
O         0.0764722435        5.7291567412        0.4645884501
O         1.9248256387       11.3161895098        5.2303275033
O         0.1140272629        7.7173750298        1.9519460951
O         2.1560238848        9.4545416716        6.7766610951
O         7.4523508530        1.8649301243        4.3543104126
O         9.4184373010        0.0448045599        9.2060517239
O         1.8253805737        7.5648959918        5.2768922251
O         0.1143375094        9.5687854836        0.2859848699
O         9.3798083202        2.0312348346        2.8392602020
O         7.4833422475       -0.1565448241        7.7073938077
O         3.7480830984        0.0672368197        2.0346198447
O        13.2148463510        1.8391799944        6.7791302263
O         0.0054828097        5.6070451185        4.4860216770
O         1.9425283407       11.3664051909        9.2540654314
O        13.1774281806       -0.0240478290        5.1371083606
O         3.7094854926        1.9536642470        0.4447365428
O         1.9467218916        5.7937742052        2.9251669491
O         0.0933021528       11.4192816615        7.5718867137
O        11.3422043491        1.9939304342        0.2956075162
O         5.8116638443       -0.0909958303        5.2795547748
O         5.5678203574        1.8338303939        6.7822401731
O        11.2654575915        0.1369592799        1.8941258312
O         1.9091770810        3.8295046722        9.1946517573
O        -0.0302452512       13.1595799839        4.4440932967
O         0.0226534394        3.8018644991        7.6835354374
O         1.8934994078       13.2373891516        2.8757113178
O         3.9578242820        3.8406330554        2.0651174024
O        13.1105851032       13.2672437048        6.7253142196
O        11.3699331321        5.6551684441        4.3855687082
O         5.6944769725       11.4657032369        9.2129405375
O        13.1755106735        3.8004081717        5.2180760109
O         3.6384999830       13.3123430743        0.5159965565
O         5.7363304746        5.9043232167        2.7417332770
O        11.3029837644       11.3375616137        7.6665227039
O        11.2428590672       13.2778704123        0.4216887661
O         5.4978431666        3.7161924844        5.1873087228
O         3.7910325205       11.3596547836        7.6880171614
O        13.2848215471        5.9154514923        2.8712074002
O         5.5249966844       13.1970663512        6.7726875695
O        11.5353466935        3.8428141769        1.9106358785
O        13.2250360628       11.4132144984        9.2017978546
O         3.8626019747        5.7124352453        4.3986791770
O         5.7597966823        5.6352958944        6.7301173929
O        11.1349761423       11.4584984758        1.9863063691
O        13.2082941018        3.9112109686        9.1352009382
O         3.7897411395       13.2106468938        4.3885352051
O        11.3594187212        5.7346840692        0.4047570094
O         5.7926746261       11.3019575130        5.2390621163
O         3.7379642197        3.7227014451        7.6502177198
O        13.2050795705       13.2125447238        2.7287615920
O        13.0575752211       11.4195640368        5.1525062542
O         3.7179894800        5.6642071734        0.4394855017
O         5.6969728149       13.1696663831        2.8736752146
O        11.2997677118        3.5716251358        7.5606222237
O         3.9586723359       11.4055827210        1.9638190291
O        13.2073264916        5.6450569342        6.9146024677
O        11.2922819843       13.3375708345        4.3158151291
O         5.6631233289        3.8072492733        9.1398753920
O         3.7919462327        7.6444600350        1.9197790766
O        13.3105964965        9.5953324745        6.7497784967
O         7.5665482085        5.5362087401        4.3151653987
O         9.4200360481       11.3207982456        9.2287594592
O        13.2679768554        7.5812355453        5.4118509964
O         3.8126813147        9.5188252567        0.3605905163
O         9.5585091636        5.5773629942        2.7947801286
O         7.5341859152       11.3484389332        7.5838873603
O        11.3496769291        9.5026608510        0.4094873953
O         5.7315158520        7.5703382186        5.1663158508
O         5.5482475915        9.4163526927        6.7559370485
O        11.2363961557        7.5996453769        2.0033558090
O         9.4423198393        3.9442470979        9.1399001417
O         7.5958116326       13.0462729396        4.4592370021
O         7.5029648318        3.6374336956        7.5560676800
O         9.4252613515       13.4641734048        2.8602638968
O         7.4399320463       -0.0420400416        2.0318578935
O         9.2117795435        1.8122679952        6.7225799405
O         0.0789484873        9.3781603134        4.4268603975
O         1.9452549643        7.5721450311        9.1919713386
O         9.3090634901       -0.0298219102        5.1987984954
O         7.6398442439        1.8934625035        0.4431511395
O         1.9653872900        9.7024408258        2.7713969431
O         0.0349826774        7.5662708495        7.6307963898
O         7.5188990113        3.7950669052        1.9414038337
O         9.5067561208       13.2003039282        6.7282806416
O        11.4397536469        9.2446914536        4.3739473652
O         5.6624247241        7.6986923450        9.1145426388
O         9.4776545461        3.6874345292        5.1923761386
O         7.5605046398       13.2168924243        0.4188194881
O         5.7494148064        9.3961307333        2.7186492780
O        11.3018705563        7.6262637430        7.6116501758
O         3.7911341974        7.3827952252        7.6025784281
O        13.3185367984        9.6076605131        2.8125161029
O        13.2601888207        7.6567721001        9.3460788577
O         3.8496712030        9.4323236098        4.3012997878
O         9.6115391754        5.5406426454        6.7566747384
O         7.6385854137       11.3240939286        1.9512307227
O         7.3444263435        5.6981455387        0.3694944908
O         9.5485122651       11.2253265610        5.1949423044
O         7.8473614266        7.5981610048        1.9155810432
O         9.4517032653        9.4249794938        6.7964239441
O         7.5567596696        9.3818870941        4.3194860961
O         9.4536725767        7.4308094159        9.2130341300
O         9.3634652575        7.4748680003        5.2505656101
O         7.5258346908        9.4745361228        0.3705161433
O         9.5649158446        9.5095512302        2.8780440044
O         7.6030455105        7.5411501983        7.6010379364
     192
 i =        2, E =     -5770.3471026099
Ti        -0.0644524627        0.0979311615        0.0341077083
Ti         1.8537877392        1.9289235626        4.8732454388
Ti         0.0327590143        2.0053898849        2.4866261755
Ti         1.8419916598       -0.0473597829        7.1993151862
Ti        -0.0467446063        3.8390172024       -0.0275833821
Ti         1.9365664555       13.2044620576        4.8342415737
Ti        11.3012693860        1.9484341200        2.4275622729
Ti         5.6059424430       -0.0807292553        7.2094109830
Ti         1.8980029001        3.8062369561        7.2515183124
Ti         0.0055807660       13.3257779229        2.4484363555
Ti         5.6840773401        1.8416681121        4.8041061285
Ti        11.2860967307        0.0895156434       -0.0273461160
Ti         3.6647382577        0.0783306806        0.0313580937
Ti        13.1600718296        1.7956467065        4.7424638530
Ti        13.2613525475       -0.0497778389        7.1807386058
Ti         3.7644194413        1.8384944435        2.4960018386
Ti         1.9580432661        5.6518694212        4.8332879831
Ti         0.0052988902       11.5254794153        0.0011028424
Ti        -0.0067273434        5.7155096996        2.4709977941
Ti         1.8776013968       11.3592528630        7.2850183729
Ti         0.0510266244        7.5298655955        0.0419451266
Ti         2.0256746441        9.5166768174        4.8605371157
Ti         7.5114406635        1.9553539700        2.3382082763
Ti         9.4672127873       -0.1044402316        7.2189973423
Ti         1.9320761604        7.5636219314        7.1826765060
Ti         0.0908144758        9.5466793987        2.4744731707
Ti         9.3679953093        1.8301074921        4.7868577400
Ti         7.4661276557       -0.0404086387       -0.0552463376
Ti         3.7392261858        3.7679405845       -0.0005993952
Ti        13.2235758932       13.1298509310        4.7874338902
Ti        11.3652587988        5.7132277736        2.3946135302
Ti         5.6797761991       11.3245389167        7.1780808615
Ti        13.1664563177        3.7024749742        7.2358533869
Ti         3.7751823991       13.1974865782        2.4538944385
Ti         5.6930004640        5.6991659652        4.8345935545
Ti        11.2348854668       11.3901035623        0.0681143070
Ti        11.3077710976       13.3197874076        2.3511258245
Ti         5.6597521576        3.7233515156        7.1507342581
Ti         3.8852419068       11.4065881895        0.0248665131
Ti        13.2772924366        5.6109121894        4.8662277181
Ti         5.7671734078       13.1966867547        4.8037422954
Ti        11.2716767248        3.7825227760       -0.0474630338
Ti        13.1231220791       11.3628718113        7.2591759015
Ti         3.7996355645        5.6614392920        2.3978780815
Ti         3.7994129895        7.5507568119        0.0236837549
Ti        13.2748837092        9.4357392802        4.8369831645
Ti         7.5065447404        5.6815191741        2.4082108869
Ti         9.4232405077       11.1913169709        7.1764499511
Ti        13.2942454719        7.5435797284        7.1796681396
Ti         3.8708953728        9.4472997078        2.3671776479
Ti         9.5134645613        5.5785801159        4.7338609082
Ti         7.5766555004       11.3507237880        0.0416744743
Ti        11.3819060184        9.4584258628        2.4375859900
Ti         5.6650688856        7.5746789920        7.2142435278
Ti         5.7619578817        9.4182918015        4.7626980097
Ti        11.2996801496        7.5903359482        0.0141165897
Ti         9.4374334714        3.6834721737        7.1773963522
Ti         7.5359401522       13.3052136343        2.3895633403
Ti         7.4843187213        3.8045361023       -0.0544384240
Ti         9.4800852087       13.2516609840        4.7873763497
Ti         7.5972403571        7.5447526119       -0.0611162050
Ti         9.5047192893        9.4156288515        4.7782475666
Ti         7.6170744441        9.4187863792        2.3372326389
Ti         9.5049166567        7.4121817235        7.1555587040
O         0.0510728041        0.0593493292        2.0287556674
O         1.7797415871        1.9189459264        6.7587876463
O        -0.0248319103        1.9774576564        4.3908483218
O         1.7975978432        0.1168754254        9.1950100983
O         1.8161887198       -0.0061521174        5.2761112489
O        -0.0995292154        2.0067439641        0.4613085653
O         1.8639331941        2.0699127007        2.8191486416
O        -0.0541379105       -0.0511946007        7.6546255254
O        -0.0697184152        3.8864605621        2.0661103891
O         1.9855429356       13.2543632716        6.8145149025
O        11.2995634119        1.8491404021        4.3285696009
O         5.6038982661        0.0191008091        9.2348298272
O         2.0343793788        3.7784560387        5.2043479497
O         0.0345157015       13.3596984043        0.4602607648
O         5.6323261562        1.9087236489        2.8192790810
O        11.3087912940        0.0644723513        7.5914111340
O         3.7072326747        0.0645980797        7.6809480314
O        13.1866835728        1.9095665923        2.8471602882
O        13.1812305800       -0.0031863924        9.1809359213
O         3.7241211864        1.7115897175        4.3771405634
O         1.8917097840        5.6366364983        6.7656057945
O         0.0192462823       11.4232023273        1.9164486962
O         0.0392745530        5.7235233596        0.4615394310
O         1.9040425885       11.3394849950        5.2532138230
O         0.1307501762        7.6924759926        1.9493967421
O         2.0222613922        9.4643431387        6.7849887352
O         7.5092920286        1.9278113772        4.3672602060
O         9.4097719011        0.0254519189        9.1656632387
O         1.8962712468        7.5624077180        5.2704234791
O         0.0987289507        9.5252095272        0.2838947842
O         9.3898158889        1.9600175703        2.8255710760
O         7.4812821456       -0.1226190597        7.6877989437
O         3.7306017780        0.0591859169        2.0273716868
O        13.2673931162        1.8582984906        6.7804417610
O         0.0149588051        5.6015076336        4.4533587622
O         1.9065246450       11.3693033043        9.2281622131
O        13.2334979811       -0.0004224217        5.1865997974
O         3.7149164388        1.9363353246        0.4686268204
O         1.9371230632        5.7245282989        2.8826388182
O         0.0424251084       11.4249820751        7.6100083840
O        11.3243425801        1.9776188352        0.3379499529
O         5.7679673087       -0.0603227123        5.2581301788
O         5.6425657022        1.8166671303        6.7670437030
O        11.3024158428        0.1277266949        1.9178650758
O         1.8840405496        3.8173690904        9.2261401056
O        -0.0182022780       13.2190914338        4.3935249971
O        -0.0016413034        3.7762962485        7.6818450100
O         1.8773096983       13.2370404266        2.8697264474
O         3.8806992116        3.8554687658        2.0609899760
O        13.1609936269       13.2309873116        6.7737831633
O        11.3634981146        5.6542340251        4.3956894691
O         5.7113396542       11.4452448897        9.2103046094
O        13.1586601843        3.8096483953        5.2360252875
O         3.6537135951       13.2967101846        0.4972381054
O         5.7114880031        5.8576488219        2.7686065164
O        11.3187926833       11.3313600559        7.6276091356
O        11.2610258899       13.2786059593        0.3969390612
O         5.6072532354        3.7222664068        5.1936786773
O         3.7955280752       11.3696494323        7.6713568881
O        13.2916577785        5.8865866392        2.8816939948
O         5.5301680321       13.2031563424        6.7921812752
O        11.4525489195        3.7988890232        1.9480692834
O        13.2431362846       11.4627140010        9.1752391556
O         3.8520152933        5.7208943490        4.3911363591
O         5.7444826114        5.6292060870        6.7234277265
O        11.2497122136       11.4132555586        1.9955337410
O        13.2131749642        3.8701233834        9.1580971269
O         3.7833694029       13.2282949198        4.4233664563
O        11.4047594402        5.7372267432        0.4002056876
O         5.7395032032       11.2816749556        5.2612452517
O         3.7519454013        3.7279725263        7.6660339466
O        13.2305432389       13.2697065306        2.7942052710
O        13.1004938215       11.3461929598        5.1757847333
O         3.7518226833        5.6662886740        0.4459488860
O         5.6853119966       13.2399005699        2.8627222099
O        11.3046928874        3.5798568502        7.5858027268
O         3.9174254820       11.3980720684        1.9733844379
O        13.2159488879        5.6554247400        6.8326337000
O        11.2952811502       13.2734926310        4.3381094021
O         5.6566264323        3.7772161299        9.1561116248
O         3.7629393707        7.6198217974        1.9286900639
O        13.3015121924        9.5442941728        6.7715910375
O         7.5801683039        5.5393686615        4.3195966641
O         9.4377761776       11.3017377127        9.1622920410
O        13.3097016206        7.5796504858        5.3351875430
O         3.7982297446        9.5064727303        0.3837874046
O         9.5000451429        5.5861126305        2.8078871195
O         7.5199258737       11.3135978718        7.5817460226
O        11.3576920933        9.4796075435        0.4775405169
O         5.7510802598        7.5508008782        5.1903482236
O         5.6184712864        9.4081140830        6.7643031569
O        11.3053069811        7.6168399614        1.9901990070
O         9.4224022112        3.9147902054        9.1404419017
O         7.5668006090       13.0975943534        4.4013039854
O         7.5254607046        3.6967602627        7.5860946598
O         9.4232857624       13.3500795371        2.8248171641
O         7.4862287891       -0.0042220218        2.0219520827
O         9.2915070578        1.8319148516        6.7555906860
O         0.0549824043        9.4600927121        4.4043945229
O         1.9231834366        7.6514073843        9.2036290869
O         9.3622994269       -0.0134409838        5.2223161860
O         7.5642089273        1.9057102794        0.4120712987
O         1.9303248884        9.6165831897        2.7606222362
O         0.0283199748        7.5945392295        7.6361227054
O         7.4760741186        3.8079134395        1.9321032488
O         9.4985102647       13.2098557429        6.7518162298
O        11.4005945606        9.2855064942        4.3929079811
O         5.6708032545        7.6414851484        9.1397759924
O         9.4462009311        3.7159221599        5.2143524228
O         7.5693935730       13.2496215924        0.4418921676
O         5.7428349307        9.4100392335        2.7731138513
O        11.3329308196        7.6034600703        7.6638486389
O         3.7867906683        7.4185087142        7.6057049097
O        13.2820277561        9.5911525378        2.8143345932
O        13.2534662423        7.6514695054        9.2358179382
O         3.8434065845        9.3972753086        4.3146007061
O         9.5247925776        5.5751343338        6.7550865538
O         7.6597728944       11.3296766349        1.9412714876
O         7.4245655616        5.6939422275        0.4227015393
O         9.5528773462       11.2576430813        5.2127925415
O         7.7713743280        7.5591683263        1.9324915859
O         9.4819651485        9.4131559594        6.8295423805
O         7.5722375690        9.3897663772        4.3346052505
O         9.4533591980        7.4959441550        9.1755434121
O         9.4234163018        7.4934121468        5.2450614798
O         7.5358457995        9.4569342375        0.3816864413
O         9.5169751711        9.4962238660        2.8676278938
O         7.5798685293        7.5141846414        7.6060557003
     192
 i =        3, E =     -5770.3893518703
Ti        -0.0511387658        0.1018834265        0.0209183189
Ti         1.8557541038        1.9223016236        4.8530243674
Ti         0.0260480067        2.0001486058        2.4652590700
Ti         1.8398684517       -0.0358801480        7.2089162112
Ti        -0.0572895752        3.8244583653       -0.0194425948
Ti         1.9387976523       13.2214970819        4.8278389709
Ti        11.3241247727        1.9319458696        2.4321668000
Ti         5.6059934844       -0.0550854663        7.2025164255
Ti         1.8980148452        3.7979649013        7.2491698536
Ti        -0.0011972524       13.3230856707        2.4355392762
Ti         5.6908029392        1.8493875453        4.7994299308
Ti        11.2809430571        0.0723825176       -0.0221860884
Ti         3.6771021315        0.0743695046        0.0235726888
Ti        13.1750955648        1.8152763824        4.7721475066
Ti        13.2442072844       -0.0346075524        7.2038534525
Ti         3.7741280169        1.8515000279        2.4735885824
Ti         1.9477640444        5.6562274816        4.8212718930
Ti        -0.0082716927       11.5121869760       -0.0083844268
Ti         0.0019401179        5.7082874599        2.4638822918
Ti         1.8707004360       11.3693535626        7.2435989664
Ti         0.0307169617        7.5347767129        0.0218970536
Ti         2.0020632743        9.5167602496        4.8410035204
Ti         7.5227357435        1.9444623131        2.3344872498
Ti         9.4535445588       -0.0760458806        7.2105249400
Ti         1.9206941798        7.5631700901        7.1836439687
Ti         0.0787283047        9.5288778983        2.4799696116
Ti         9.3854171377        1.8445203601        4.7847058944
Ti         7.4718783524       -0.0183556495       -0.0501141231
Ti         3.7471323166        3.7736024017        0.0121661345
Ti        13.2261378045       13.1546149487        4.7858372893
Ti        11.3670832433        5.7017088479        2.4059304146
Ti         5.6822297122       11.3208973176        7.1935767046
Ti        13.1768131727        3.7259664520        7.2192311146
Ti         3.7754878372       13.2261686656        2.4284442786
Ti         5.6947371194        5.6779681905        4.8376412659
Ti        11.2599632998       11.3937645018        0.0370465235
Ti        11.3226498585       13.3043969141        2.3724485993
Ti         5.6612005143        3.7314938290        7.1647806752
Ti         3.8602055062       11.3927448399        0.0264239561
Ti        13.2723173584        5.6129509963        4.8436812759
Ti         5.7415149916       13.1991736557        4.8002906687
Ti        11.2806926182        3.7808117110       -0.0241951273
Ti        13.1609767303       11.3508358083        7.2634930894
Ti         3.8033262983        5.6619853002        2.3999976979
Ti         3.7938892604        7.5656135918        0.0133284561
Ti        13.2663432498        9.4523544878        4.8340086346
Ti         7.5056268341        5.6876500150        2.4017274076
Ti         9.4389291754       11.2286156460        7.1667459498
Ti        13.2895893883        7.5413880568        7.1740253147
Ti         3.8501020022        9.4428409512        2.3826519796
Ti         9.4966975574        5.5958386715        4.7533848133
Ti         7.5839158121       11.3513032081        0.0250384490
Ti        11.3888831498        9.4595136345        2.4275810983
Ti         5.6713831663        7.5561869017        7.2270486405
Ti         5.7500875624        9.4167064038        4.7805101365
Ti        11.3133925787        7.5940759476        0.0115065730
Ti         9.4346503941        3.7006712042        7.1832930932
Ti         7.5386013020       13.3146040680        2.3849641316
Ti         7.4947429886        3.8003019357       -0.0380189771
Ti         9.4661930120       13.2406121322        4.7856683668
Ti         7.6001736416        7.5447661245       -0.0534839283
Ti         9.5051725714        9.4295703026        4.7787753941
Ti         7.6041023190        9.4331724261        2.3635201561
Ti         9.5033560036        7.4475244327        7.1701358346
O         0.0396001116        0.0689150691        1.9980345504
O         1.8304891514        1.9127779775        6.7660576666
O        -0.0033492933        1.9457765548        4.3878377546
O         1.8175837893        0.1136296278        9.1927109990
O         1.8113140937       -0.0049450157        5.2703628059
O        -0.0737941991        1.9904627450        0.4555578969
O         1.8654591936        2.0255454020        2.8086892215
O        -0.0477327143       -0.0616878158        7.6619006625
O        -0.0797917053        3.8750955013        2.0448807679
O         1.9533478536       13.2409041706        6.8130584719
O        11.2944908825        1.8624512522        4.3633709633
O         5.5935921886        0.0146634097        9.2122006462
O         1.9820189840        3.7820134833        5.2195632254
O         0.0146902945       13.3533566802        0.4552399865
O         5.6445687500        1.9268052085        2.8185366496
O        11.3077865457        0.0524862799        7.6055698077
O         3.7117413264        0.0324487514        7.6751431602
O        13.1998057771        1.9057130141        2.8598998497
O        13.1917918940        0.0496739195        9.1745480256
O         3.7484202264        1.7541971310        4.3823717506
O         1.8667382125        5.6530809388        6.7841463629
O        -0.0171275784       11.4030560528        1.9142298614