     192
 i =        1, E =     -5783.5041193370
Ti         0.0006645044        0.0006643469       -0.0000016038
Ti        -0.0006855836       -0.0006831030        0.0000018400
Ti         0.0006661589       -0.0007068444       -0.0005879317
Ti        -0.0007079137        0.0006691040        0.0005900005
Ti         0.0006697502       -0.0011704374        0.0002875497
Ti        -0.0007072367       -0.0007107859       -0.0005877433
Ti         0.0006727536       -0.0006894792        0.0000024040
Ti        -0.0002258338        0.0006742547        0.0004185647
Ti        -0.0006591238       -0.0011603938        0.0002939396
Ti         0.0006643750       -0.0007117612        0.0000007940
Ti        -0.0002318950       -0.0006440259        0.0001702951
Ti         0.0006917069        0.0006640577       -0.0005867030
Ti        -0.0011708210        0.0006712273       -0.0002857382
Ti        -0.0007098634       -0.0007055860        0.0005929567
Ti        -0.0007075490        0.0006670670       -0.0000032689
Ti        -0.0011587146       -0.0006655954       -0.0002947805
Ti        -0.0006455734       -0.0002279766       -0.0001678740
Ti         0.0006655050        0.0006910487        0.0005863093
Ti         0.0006742112       -0.0002262043       -0.0004164708
Ti        -0.0006929326        0.0006717500        0.0000001892
Ti         0.0006734340        0.0002672924        0.0004178712
Ti        -0.0006660390        0.0011734368       -0.0002978680
Ti         0.0002720137       -0.0006482174       -0.0001697324
Ti         0.0011802317        0.0006689620        0.0002850009
Ti        -0.0006474415        0.0002725783        0.0001673641
Ti         0.0006701129        0.0011821278       -0.0002806643
Ti         0.0011754952       -0.0006586733        0.0002979181
Ti         0.0002699354        0.0006731612       -0.0004205862
Ti        -0.0011430307       -0.0011423578       -0.0000028102
Ti        -0.0007042984       -0.0007065246        0.0000032758
Ti         0.0006277790       -0.0002276529        0.0001686398
Ti        -0.0002292463        0.0006289568       -0.0001674763
Ti        -0.0007110350       -0.0011757634       -0.0002907548
Ti        -0.0011713959       -0.0007100979        0.0002896883
Ti        -0.0002299460       -0.0002305738       -0.0000017236
Ti         0.0006740200        0.0006713066       -0.0000002354
Ti         0.0006909296       -0.0007092722        0.0005888395
Ti        -0.0002327188       -0.0011313073        0.0001167588
Ti        -0.0011617634        0.0006435222        0.0002934299
Ti        -0.0007107510       -0.0002237919        0.0004171793
Ti        -0.0002269132       -0.0007106158       -0.0004177065
Ti         0.0006463129       -0.0011607982       -0.0002923251
Ti        -0.0007070029        0.0006935630       -0.0005917897
Ti        -0.0011310450       -0.0002327221       -0.0001170705
Ti        -0.0011323192        0.0002715787        0.0001162964
Ti        -0.0007095124        0.0011849805        0.0002850633
Ti         0.0002754442       -0.0002284084        0.0000019489
Ti         0.0011726091        0.0006454955       -0.0003006522
Ti        -0.0007122715        0.0002727880       -0.0004228964
Ti        -0.0011439506        0.0011545457        0.0000017714
Ti         0.0011429693       -0.0002292062        0.0001212680
Ti         0.0002712415        0.0006276326        0.0001646517
Ti         0.0006440981        0.0011683024        0.0002992505
Ti        -0.0002307071        0.0002744780        0.0000000528
Ti        -0.0002252170        0.0011428700       -0.0001182671
Ti         0.0006274811        0.0002731588       -0.0001639442
Ti         0.0011512822       -0.0011389568       -0.0000055950
Ti         0.0002739351       -0.0007106691        0.0004226180
Ti         0.0002721514       -0.0011306135       -0.0001189506
Ti         0.0011837907       -0.0007115580       -0.0002848621
Ti         0.0002734182        0.0002715144        0.0000015440
Ti         0.0011546268        0.0011538792       -0.0000022704
Ti         0.0002811387        0.0011360898        0.0001255972
Ti         0.0011411473        0.0002756024       -0.0001248873
O        -0.0001326630        0.0000308485       -0.0000547072
O         0.0003966657        0.0002700519        0.0002127362
O         0.0000536831        0.0004287704        0.0002994306
O         0.0002930328       -0.0001271884       -0.0001109012
O         0.0004316053        0.0000480613       -0.0002997928
O        -0.0001234194        0.0002941980        0.0001152772
O         0.0002760770        0.0003985052       -0.0002149314
O         0.0000277440       -0.0001335993        0.0000558181
O        -0.0001171720       -0.0006447033       -0.0000955929
O         0.0004303529       -0.0000645597        0.0003033517
O        -0.0002958246        0.0004078635        0.0002224606
O        -0.0001365157       -0.0001136689       -0.0002638123
O         0.0003532706       -0.0006426453       -0.0002184496
O        -0.0001373331       -0.0000379893        0.0000518291
O        -0.0001380251        0.0003428710       -0.0000396990
O        -0.0003117626       -0.0001216640        0.0001079736
O        -0.0006450248       -0.0001168259        0.0000918649
O        -0.0000672332        0.0004275819       -0.0003058580
O        -0.0000370588       -0.0001399990       -0.0000556051
O        -0.0006439745        0.0003540067        0.0002147651
O         0.0003365351       -0.0001379954        0.0000405282
O        -0.0001238008       -0.0003071438       -0.0001053073
O        -0.0001143861       -0.0001383121        0.0002655478
O         0.0004097369       -0.0002994333       -0.0002213236
O        -0.0001122106        0.0001567855       -0.0002626423
O         0.0003563472        0.0006364949        0.0002225744
O         0.0001544750        0.0003439554        0.0000438068
O         0.0006416002       -0.0001190840       -0.0000873067
O         0.0003468696        0.0001546334       -0.0000424969
O        -0.0001160340        0.0006399556        0.0000870444
O         0.0006374651        0.0003554170       -0.0002254950
O         0.0001547130       -0.0001110080        0.0002601637
O        -0.0006292030        0.0000943208        0.0003657746
O         0.0001394448        0.0002889794       -0.0001153895
O         0.0001150932       -0.0006103994        0.0003870128
O         0.0002782029       -0.0004190740        0.0002085005
O         0.0001613208        0.0000262238        0.0000602043
O        -0.0006138480        0.0002903381       -0.0002806857
O         0.0003170091       -0.0005994790       -0.0003153077
O         0.0000559836       -0.0004490126       -0.0002924633
O        -0.0004223405        0.0002762815       -0.0002091704
O        -0.0006098360        0.0001109283       -0.0003855989
O        -0.0005981627        0.0003175206        0.0003172258
O        -0.0004538263        0.0000562156        0.0002906233
O         0.0002904913       -0.0006128804        0.0002826131
O         0.0000276110        0.0001637611       -0.0000657483
O         0.0000940471       -0.0006254592       -0.0003672072
O         0.0002924798        0.0001343578        0.0001192920
O        -0.0005985928       -0.0006163064        0.0003031583
O         0.0001531323       -0.0000416613       -0.0000550900
O        -0.0003331110       -0.0006017456        0.0003228940
O        -0.0001373398       -0.0003566814        0.0000385974
O         0.0001311338       -0.0006452836        0.0000978039
O        -0.0006286045       -0.0001037080       -0.0003691599
O        -0.0001228888       -0.0005921084       -0.0002397688
O        -0.0002961679       -0.0004245555       -0.0002171737
O        -0.0004535653       -0.0000612734       -0.0002982645
O        -0.0005990406       -0.0005916896       -0.0003878005
O        -0.0006435508       -0.0003692655       -0.0002134199
O        -0.0001264582       -0.0006061425       -0.0003911439
O        -0.0006055803       -0.0001265720        0.0003863123
O        -0.0003694639       -0.0006428171        0.0002125785
O        -0.0000645906       -0.0004532178        0.0002983880
O        -0.0005882480       -0.0005981966        0.0003828271
O        -0.0005924197       -0.0001226064        0.0002395890
O        -0.0004208244       -0.0002950355        0.0002189617
O        -0.0001023055       -0.0006301367        0.0003674631
O        -0.0006490894        0.0001383743       -0.0000997754
O        -0.0003586039       -0.0001374011       -0.0000385948
O        -0.0006022520       -0.0003390331       -0.0003212095
O        -0.0006159571       -0.0005968532       -0.0003014824
O        -0.0000430224        0.0001534891        0.0000588454
O         0.0001440146       -0.0003151145        0.0001120147
O        -0.0005841416       -0.0001292390       -0.0001254073
O        -0.0001363619        0.0001178409        0.0002631050
O        -0.0003106825       -0.0006116201       -0.0002862538
O        -0.0006101026       -0.0003045866        0.0002888016
O         0.0001239280       -0.0001396748       -0.0002643221
O        -0.0003137627        0.0001460783       -0.0001137872
O        -0.0001285052       -0.0005859614        0.0001269601
O        -0.0005827417        0.0001495091        0.0001298473
O         0.0001241605        0.0006412211       -0.0000888420
O         0.0001349139       -0.0005962420        0.0002396091
O         0.0006363913       -0.0003696549        0.0002213893
O         0.0001270390        0.0001530507        0.0002624331
O        -0.0005978889        0.0006075941       -0.0003080613
O         0.0005779234       -0.0005964597       -0.0003917159
O         0.0001555915       -0.0003586735       -0.0000386879
O        -0.0003725921        0.0006382373       -0.0002214889
O        -0.0005959948        0.0001373592       -0.0002391453
O        -0.0005957713        0.0005814266        0.0003903705
O        -0.0003553997        0.0001550413        0.0000373067
O         0.0006119457       -0.0006004433        0.0003080909
O         0.0001516597        0.0001307032       -0.0002639118
O         0.0001475318       -0.0005840630       -0.0001266110
O         0.0006414533        0.0001251278        0.0000898025
O         0.0006593436        0.0001179161        0.0003879945
O         0.0005710696        0.0002876829        0.0002781899
O         0.0000831642        0.0005861186        0.0003639314
O         0.0003133674        0.0006513530        0.0003178170
O         0.0005870710        0.0000843481       -0.0003626212
O         0.0006507449        0.0003199270       -0.0003189737
O         0.0002900938        0.0005686203       -0.0002789787
O         0.0001158213        0.0006575356       -0.0003851812
O         0.0006464406       -0.0005891876        0.0003851070
O         0.0005862294       -0.0000979591        0.0003667570
O        -0.0003114959        0.0005728635        0.0002852610
O        -0.0001221354        0.0006438411        0.0002368151
O         0.0005576705       -0.0006244566       -0.0002972677
O         0.0006578025       -0.0001282100       -0.0003874505
O        -0.0001291797        0.0005459437       -0.0001229568
O        -0.0003283301        0.0006501157       -0.0003196330
O        -0.0005870371        0.0006468955       -0.0003867666
O        -0.0001017005        0.0005862237       -0.0003690039
O        -0.0001244660        0.0006591449        0.0003882572
O        -0.0006251979        0.0005577812        0.0002973426
O         0.0005451604       -0.0001284637        0.0001199576
O         0.0006505745       -0.0003298610        0.0003213179
O         0.0006422474       -0.0001214020       -0.0002351040
O         0.0005737979       -0.0003100410       -0.0002850117
O         0.0006414130        0.0001387552        0.0002333647
O         0.0005586415        0.0006147150        0.0003031187
O         0.0001418420        0.0005490843        0.0001217015
O         0.0005800171        0.0006475300        0.0003884133
O         0.0005491966        0.0001410933       -0.0001216325
O         0.0006458707        0.0005815148       -0.0003911724
O         0.0006129418        0.0005616758       -0.0003022454
O         0.0001382462        0.0006415429       -0.0002334044
     192
 i =        2, E =     -5783.5046662895
Ti         0.0000592974        0.0000620007       -0.0000025805
Ti        -0.0005133037       -0.0005160554        0.0000002505
Ti         0.0000593250       -0.0005125536        0.0004899804
Ti        -0.0005163313        0.0000595741       -0.0004899044
Ti         0.0000632565       -0.0010410486        0.0000447481
Ti        -0.0005166081       -0.0000718057        0.0004799494
Ti         0.0004826370       -0.0005160929       -0.0000170356
Ti        -0.0006723530        0.0000583761       -0.0000488318
Ti        -0.0005125242       -0.0010401358       -0.0005328436
Ti         0.0000596265       -0.0000725330        0.0000083947
Ti        -0.0006649052       -0.0005207532       -0.0004547684
Ti         0.0004855660        0.0000597708        0.0005113681
Ti        -0.0010453044        0.0000639120       -0.0000423113
Ti        -0.0000738637       -0.0005161021       -0.0004762274
Ti        -0.0000726330        0.0000610163       -0.0000102006
Ti        -0.0010380074       -0.0005153869        0.0005344938
Ti        -0.0005227431       -0.0006665939        0.0004591325
Ti         0.0000599893        0.0004840954       -0.0005074276
Ti         0.0000587546       -0.0006740465        0.0000506659
Ti        -0.0005157881        0.0004835206        0.0000209927
Ti         0.0000588354        0.0007306510       -0.0000510204
Ti        -0.0005134164        0.0010209557        0.0005233515
Ti         0.0007191469       -0.0005215761        0.0004551918
Ti         0.0010280805        0.0000614562        0.0000335153
Ti        -0.0005219701        0.0007189963       -0.0004590202
Ti         0.0000627742        0.0010283508       -0.0000335192
Ti         0.0010229993       -0.0005147329       -0.0005222781
Ti         0.0007345548        0.0000597443        0.0000461115
Ti        -0.0010248997       -0.0010276065       -0.0000022678
Ti        -0.0000727601       -0.0000765806       -0.0000019291
Ti         0.0004905269       -0.0006627742       -0.0004734491
Ti        -0.0006650570        0.0004923189        0.0004723304
Ti        -0.0000776790       -0.0010491085       -0.0000563538
Ti        -0.0010487905       -0.0000744010        0.0000552648
Ti        -0.0006595666       -0.0006618825       -0.0000023404
Ti         0.0004854155        0.0004823007       -0.0000017644
Ti         0.0004836634       -0.0000719819       -0.0004971519
Ti        -0.0006557858       -0.0010320535       -0.0000602719
Ti        -0.0010387603        0.0004839582       -0.0005530544
Ti        -0.0000743571       -0.0006747168       -0.0000449903
Ti        -0.0006780297       -0.0000740443        0.0000433119
Ti         0.0004832730       -0.0010357735        0.0005511905
Ti        -0.0000729977        0.0004845715        0.0004973498
Ti        -0.0010317107       -0.0006570370        0.0000580842
Ti        -0.0010300494        0.0007136910       -0.0000563250
Ti        -0.0000795666        0.0010275595        0.0000425419
Ti         0.0007144794       -0.0006548118        0.0000017256
Ti         0.0010229548        0.0004837249        0.0005413179
Ti        -0.0000759930        0.0007334420        0.0000418053
Ti        -0.0010294792        0.0010121415        0.0000101947
Ti         0.0010152953       -0.0006594672       -0.0000417908
Ti         0.0007194601        0.0004904017       -0.0004735120
Ti         0.0004819022        0.0010230361       -0.0005405021
Ti        -0.0006568134        0.0007164807        0.0000026616
Ti        -0.0006597493        0.0010139024        0.0000502314
Ti         0.0004915323        0.0007224609        0.0004748369
Ti         0.0010111313       -0.0010264005       -0.0000106676
Ti         0.0007342258       -0.0000747733       -0.0000410596
Ti         0.0007139628       -0.0010295807        0.0000567648
Ti         0.0010290837       -0.0000827387       -0.0000419278
Ti         0.0007137562        0.0007149802       -0.0000005845
Ti         0.0010048810        0.0010092537       -0.0000022986
Ti         0.0007137427        0.0010137673       -0.0000424581
Ti         0.0010153666        0.0007131075        0.0000430500
O         0.0000310627        0.0000466750       -0.0003257924
O         0.0002821590       -0.0000207527        0.0003322711
O         0.0000278889        0.0002796504        0.0000254890
O        -0.0000092076        0.0000287416       -0.0000021326
O         0.0002781156        0.0000229382       -0.0000258554
O         0.0000296837       -0.0000074172        0.0000035532
O        -0.0000178417        0.0002823735       -0.0003334379
O         0.0000509403        0.0000318592        0.0003266352
O         0.0000232026        0.0002248899       -0.0006887236
O         0.0002742664       -0.0000013190        0.0000361565
O         0.0000234854        0.0002844096        0.0003609042
O         0.0000945270        0.0000131810       -0.0006266408
O         0.0002882953        0.0002033404        0.0003545198
O         0.0000292923       -0.0000255163        0.0003167587
O         0.0000876393        0.0002754837        0.0003010566
O         0.0000172625        0.0000322680       -0.0000240632
O         0.0002275245        0.0000246233        0.0006878935
O        -0.0000006863        0.0002743725       -0.0000406342
O        -0.0000208304        0.0000293232       -0.0003156747
O         0.0001994276        0.0002871180       -0.0003551325
O         0.0002751811        0.0000940924       -0.0003029787
O         0.0000304985        0.0000191295        0.0000250878
O         0.0000138292        0.0000892662        0.0006259644
O         0.0002829433        0.0000256540       -0.0003600086
O         0.0000151567       -0.0001019613       -0.0006308645
O         0.0002840270       -0.0002205886       -0.0003411890
O        -0.0000990248        0.0002778166       -0.0003056757
O        -0.0002478703        0.0000213962       -0.0006770524
O         0.0002786221       -0.0000996283        0.0003059097
O         0.0000230564       -0.0002378433        0.0006754783
O        -0.0002150178        0.0002857619        0.0003408404
O        -0.0001046470        0.0000160206        0.0006302920
O         0.0005169553       -0.0000104359        0.0000777206
O        -0.0000177170       -0.0000040675       -0.0000035398
O        -0.0000105240       -0.0005577462        0.0002149877
O        -0.0000143289       -0.0002619604        0.0003244229
O        -0.0000161746        0.0000516288        0.0003306178
O         0.0004995636       -0.0000486030       -0.0003584723
O         0.0000009137       -0.0005405380       -0.0005046011
O         0.0000303628       -0.0002532272       -0.0000174957
O        -0.0002605930       -0.0000188454       -0.0003244105
O        -0.0005582928       -0.0000067729       -0.0002140677
O        -0.0005398377        0.0000050723        0.0005050989
O        -0.0002526734        0.0000283633        0.0000142769
O        -0.0000438200        0.0004991597        0.0003584254
O         0.0000489936       -0.0000155056       -0.0003292861
O        -0.0000079315        0.0005197350       -0.0000775905
O        -0.0000027876       -0.0000208407        0.0000044236
O         0.0004689967        0.0001765680       -0.0003771948
O        -0.0000181680       -0.0000264805       -0.0003161943
O         0.0000075973       -0.0005398186        0.0005333782
O         0.0000886922       -0.0002585785       -0.0003090090
O        -0.0000070828        0.0002221437        0.0006920471
O         0.0005139622        0.0000357983       -0.0000891677
O         0.0001086989       -0.0005155980        0.0001610533
O         0.0000199501       -0.0002600455       -0.0003515547
O        -0.0002514565        0.0000020839       -0.0000268513
O        -0.0005305041        0.0002273360        0.0002012566
O         0.0002027077       -0.0002666037        0.0003627873
O         0.0000335836       -0.0005578040       -0.0002251820
O        -0.0005573013        0.0000268775        0.0002240192
O        -0.0002652576        0.0002043634       -0.0003636190
O        -0.0000046032       -0.0002522902        0.0000287028
O         0.0002354655       -0.0005307623       -0.0002030595
O        -0.0005158612        0.0001042989       -0.0001606043
O        -0.0002586638        0.0000238379        0.0003515939
O         0.0000330443        0.0005097497        0.0000884378
O         0.0002286434       -0.0000046414       -0.0006932160
O        -0.0002597195        0.0000897111        0.0003079334
O        -0.0005405838        0.0000019805       -0.0005341332
O         0.0001704634        0.0004726162        0.0003765828
O        -0.0000264929       -0.0000190238        0.0003160045
O        -0.0000139896        0.0000183911       -0.0000213679
O         0.0004488045        0.0000910328        0.0003534287
O         0.0000916704       -0.0000043122        0.0006258320
O         0.0000476792        0.0005067745       -0.0003865231
O         0.0005064841        0.0000452996        0.0003869897
O        -0.0000024618        0.0000905030       -0.0006265799
O         0.0000153559       -0.0000132340        0.0000222706
O         0.0000844785        0.0004472113       -0.0003526145
O         0.0004547512       -0.0000942321       -0.0003558091
O        -0.0000107444       -0.0002430572       -0.0006764642
O        -0.0001254636       -0.0005163840       -0.0001663540
O        -0.0002183191       -0.0002666871       -0.0003471585
O         0.0000001481       -0.0001026989        0.0006306601
O         0.0004698190       -0.0001917731        0.0003601609
O        -0.0002476678       -0.0005305321        0.0001863735
O        -0.0000962930       -0.0002593703        0.0003146266
O        -0.0002689318       -0.0002224517        0.0003471658
O        -0.0005157361       -0.0001148242        0.0001648288
O        -0.0005298976       -0.0002448129       -0.0001871643
O        -0.0002584439       -0.0000997183       -0.0003143477
O        -0.0001880663        0.0004676267       -0.0003595938
O        -0.0001038926        0.0000023140       -0.0006330641
O        -0.0000926330        0.0004553820        0.0003581881
O        -0.0002432853       -0.0000129964        0.0006760262
O         0.0005517525       -0.0000062936        0.0002190694
O        -0.0005239722       -0.0000480915        0.0003475326
O        -0.0000096918       -0.0005366625        0.0000676923
O        -0.0000043818        0.0005333949        0.0005063652
O        -0.0005358056       -0.0000081497       -0.0000674120
O         0.0005328655        0.0000015373       -0.0005057526
O        -0.0000487778       -0.0005252349       -0.0003481000
O        -0.0000104993        0.0005531874       -0.0002156544
O         0.0005228823        0.0002258561       -0.0002045110
O        -0.0005391074        0.0000334071        0.0000791925
O         0.0000531398       -0.0005211210        0.0003780236
O         0.0001089272        0.0005056543       -0.0001683188
O        -0.0004870952        0.0001774770        0.0003839005
O         0.0005528775        0.0000316752       -0.0002253706
O         0.0000924483       -0.0004675168        0.0003590442
O         0.0000116426        0.0005335507       -0.0005325650
O         0.0002297467        0.0005214831        0.0002050490
O         0.0000304686       -0.0005406195       -0.0000800996
O         0.0000369698        0.0005525742        0.0002283241
O         0.0001727182       -0.0004859126       -0.0003858842
O        -0.0004684598        0.0000910870       -0.0003603688
O         0.0005330186        0.0000086773        0.0005329200
O         0.0005066379        0.0001046829        0.0001664069
O        -0.0005192864        0.0000583346       -0.0003778651
O         0.0005065675       -0.0001189613       -0.0001727851
O        -0.0004904900       -0.0001946354       -0.0003683562
O        -0.0000917934       -0.0004645759       -0.0003627634
O        -0.0002429394        0.0005228356       -0.0001895461
O        -0.0004624810       -0.0001012437        0.0003622021
O         0.0005225160       -0.0002401617        0.0001873697
O        -0.0001916979       -0.0004895524        0.0003679673
O        -0.0001219652        0.0005073307        0.0001731484
     192
 i =        3, E =     -5783.5049644732
Ti         0.0000522523        0.0000543137       -0.0000013190
Ti        -0.0000864321       -0.0000879240        0.0000000146
Ti         0.0000453975       -0.0000777532        0.0005159197
Ti        -0.0000810469        0.0000455213       -0.0005169072
Ti         0.0000443374       -0.0001261846        0.0002531389
Ti        -0.0000806310       -0.0000368175        0.0005071743
Ti         0.0000821982       -0.0000875878       -0.0000279908
Ti        -0.0003729299        0.0000321501        0.0003589776
Ti        -0.0000911011       -0.0001364822       -0.0007609567
Ti         0.0000523156       -0.0000449903        0.0000073904
Ti        -0.0003734185       -0.0001089040       -0.0008811002
Ti         0.0000769790        0.0000460605        0.0005462376
Ti        -0.0001284926        0.0000448454       -0.0002515449
Ti        -0.0000385096       -0.0000797428       -0.0005047781
Ti        -0.0000454679        0.0000530615       -0.0000087532
Ti        -0.0001358612       -0.0000923434        0.0007618518
Ti        -0.0001102601       -0.0003751837        0.0008838081
Ti         0.0000456651        0.0000751950       -0.0005431979
Ti         0.0000323477       -0.0003742770       -0.0003578988
Ti        -0.0000882387        0.0000823045        0.0000292541
Ti         0.0000322836        0.0003885971        0.0003543584
Ti        -0.0000908537        0.0001136096        0.0007376858
Ti         0.0003861299       -0.0001083296        0.0008770757
Ti         0.0001065581        0.0000437890        0.0002301043
Ti        -0.0001087839        0.0003858126       -0.0008788976
Ti         0.0000448114        0.0001058061       -0.0002309575
Ti         0.0001148725       -0.0000924439       -0.0007371500
Ti         0.0003912402        0.0000331149       -0.0003575548
Ti        -0.0001352243       -0.0001362169       -0.0000012327
Ti        -0.0000459990       -0.0000482599       -0.0000014402
Ti         0.0001031647       -0.0003726495       -0.0009071629
Ti        -0.0003739650        0.0001039252        0.0009078350
Ti        -0.0000365072       -0.0001295593       -0.0002642691
Ti        -0.0001295860       -0.0000346088        0.0002637888
Ti        -0.0003881543       -0.0003891611       -0.0000016832
Ti         0.0000826742        0.0000815792       -0.0000004721
Ti         0.0000762861       -0.0000381296       -0.0005347957
Ti        -0.0003733321       -0.0001538640        0.0001522340
Ti        -0.0001348448        0.0000862496       -0.0007892323
Ti        -0.0000262382       -0.0003733254        0.0003663386
Ti        -0.0003759948       -0.0000261438       -0.0003672101
Ti         0.0000855777       -0.0001345845        0.0007882702
Ti        -0.0000375248        0.0000759321        0.0005341132
Ti        -0.0001534846       -0.0003746965       -0.0001531883
Ti        -0.0001514086        0.0003873400        0.0001481263
Ti        -0.0000392303        0.0001050386        0.0002394282
Ti         0.0003993911       -0.0003854726       -0.0000060336
Ti         0.0001154321        0.0000872800        0.0007670879
Ti        -0.0000273478        0.0003885353       -0.0003637889
Ti        -0.0001358183        0.0001176316        0.0000233768
Ti         0.0001358851       -0.0003745384        0.0001796549
Ti         0.0003869225        0.0001017514       -0.0009021884
Ti         0.0000865466        0.0001158027       -0.0007661731
Ti        -0.0003860940        0.0004006782        0.0000093364
Ti        -0.0003750452        0.0001340641       -0.0001761857
Ti         0.0001022090        0.0003884513        0.0009035961
Ti         0.0001165725       -0.0001356968       -0.0000219435
Ti         0.0003885945       -0.0000276774        0.0003632392
Ti         0.0003883767       -0.0001519121       -0.0001482578
Ti         0.0001072780       -0.0000405937       -0.0002381241
Ti         0.0003997175        0.0004007534       -0.0000014126
Ti         0.0001135300        0.0001155349       -0.0000007136
Ti         0.0003839972        0.0001349111        0.0001717836
Ti         0.0001345457        0.0003860254       -0.0001710942
O        -0.0000941959       -0.0001783083       -0.0001462759
O         0.0000176783        0.0000313151        0.0002896813
O        -0.0001856528        0.0000183366       -0.0002392376
O         0.0000567354       -0.0000953317        0.0003668335
O         0.0000183861       -0.0001869214        0.0002385102
O        -0.0000954402        0.0000559499       -0.0003672048
O         0.0000315794        0.0000169885       -0.0002899031
O        -0.0001759176       -0.0000946318        0.0001474130
O        -0.0000875129        0.0002862193       -0.0004732814
O         0.0000192708        0.0002117030       -0.0002398130
O        -0.0000218354        0.0000152186        0.0003049509
O         0.0002557330       -0.0000841867       -0.0004317355
O         0.0000345691        0.0002686126        0.0005808523
O        -0.0000935747        0.0002002918        0.0001491874
O         0.0002432145        0.0000419386        0.0005508586
O        -0.0000466516       -0.0000965109       -0.0003822019
O         0.0002872894       -0.0000879678        0.0004737436
O         0.0002116456        0.0000191769        0.0002391369
O         0.0002040839       -0.0000931834       -0.0001487238
O         0.0002660539        0.0000336477       -0.0005795513
O         0.0000427485        0.0002477809       -0.0005529772
O        -0.0000963528       -0.0000468359        0.0003829881