     192
 i =        1, E =     -5783.5041193370
Ti        -0.0006922485       -0.0007100655        0.0000042700
Ti         1.8927481983        1.8927610557        4.8075082110
Ti        -0.0006600818        1.8927459452        2.4026299948
Ti         1.8927628429       -0.0006559302        7.2123779134
Ti        -0.0006399488        3.7811913029        0.0017049822
Ti         1.8927806558       13.2394775896        4.8063698412
Ti        11.3460933954        1.8927436776        2.4037167194
Ti         5.6738702265       -0.0006270119        7.2133700879
Ti         1.8927115699        3.7812482770        7.2106899937
Ti        -0.0006834272       13.2394746750        2.4037840203
Ti         5.6738896609        1.8927270789        4.8065208774
Ti        11.3460580241       -0.0006747231       -0.0010970786
Ti         3.7812000872       -0.0006414825       -0.0016972832
Ti        13.2394628929        1.8927749227        4.8086371064
Ti        13.2394863454       -0.0006811158        7.2112606031
Ti         3.7812368104        1.8927255145        2.4043356639
Ti         1.8927181053        5.6738885923        4.8084832120
Ti        -0.0006702523       11.3460649896        0.0010868471
Ti        -0.0006322584        5.6738676359        2.4016364705
Ti         1.8927564833       11.3460962587        7.2112918878
Ti        -0.0006283326        7.5650687258        0.0020970819
Ti         1.8927537182        9.4576852435        4.8080594746
Ti         7.5650799672        1.8927119875        2.4047289193
Ti         9.4576965971       -0.0006347493        7.2129372662
Ti         1.8927176643        7.5650765411        7.2102987039
Ti        -0.0006332031        9.4576889936        2.4020789995
Ti         9.4576748202        1.8927466347        4.8069639746
Ti         7.5650550636       -0.0006343422       -0.0020893449
Ti         3.7812296548        3.7812326989        0.0000057679
Ti        13.2394889896       13.2395064443        4.8075119400
Ti        11.3461410761        5.6738720457        2.4027374082
Ti         5.6738801377       11.3461260706        7.2122755067
Ti        13.2394358046        3.7812316924        7.2095636798
Ti         3.7812189510       13.2394232675        2.4054688179
Ti         5.6738897036        5.6738934158        4.8075141594
Ti        11.3460806506       11.3460851922       -0.0000003341
Ti        11.3460774277       13.2394545606        2.4048679156
Ti         5.6738706673        3.7812362861        7.2116849752
Ti         3.7812299324       11.3461218848       -0.0006011687
Ti        13.2394321391        5.6738838440        4.8096380390
Ti         5.6739004446       13.2394408808        4.8053962772
Ti        11.3461081589        3.7812211428        0.0005965293
Ti        13.2394556943       11.3460700190        7.2101600370
Ti         3.7812379273        5.6738742548        2.4033434835
Ti         3.7812347975        7.5650740369        0.0004076472
Ti        13.2394663886        9.4577086886        4.8091946343
Ti         7.5650788229        5.6738672261        2.4037330073
Ti         9.4576698045       11.3461137460        7.2118397328
Ti        13.2394295757        7.5650729796        7.2091697512
Ti         3.7812371518        9.4576567078        2.4037837329
Ti         9.4576814232        5.6739032080        4.8079484749
Ti         7.5650707673       11.3461311939       -0.0009982737
Ti        11.3461241460        9.4576746708        2.4031761938
Ti         5.6738706850        7.5650697877        7.2112728003
Ti         5.6738964128        9.4576860014        4.8070600513
Ti        11.3461282082        7.5650605377        0.0009919030
Ti         9.4576687267        3.7812298914        7.2112389161
Ti         7.5650663835       13.2394235230        2.4058547806
Ti         7.5650623134        3.7812211376       -0.0004059911
Ti         9.4577071137       13.2394695808        4.8058289841
Ti         7.5650699218        7.5650710372        0.0000002031
Ti         9.4576993732        9.4576974801        4.8075121465
Ti         7.5650625435        9.4576762785        2.4041760415
Ti         9.4576652793        7.5650648993        7.2108440206
O         0.0012953087        0.0027001407        1.9937535369
O         1.8846073714        1.8898030248        6.7994650952
O         0.0026736744        1.8843924521        4.3966948376
O         1.8897305446        0.0013146987        9.2039681544
O         1.8843848984        0.0026900506        5.2183227704
O         0.0012938683        1.8897249624        0.4110368056
O         1.8897886609        1.8845987609        2.8155602723
O         0.0027053812        0.0012975987        7.6212659986
O         0.0012888138        3.7816912973        1.9937122021
O         1.8844019551       13.2360797416        6.8004362738
O        11.3490329599        1.8845489385        4.3956737192
O         5.6727869345        0.0013014368        9.2053377532
O         1.8847978737        3.7817110409        5.2182325938
O         0.0013216279       13.2360426689        0.4100143368
O         5.6728184826        1.8848867788        2.8140862685
O        11.3490885293        0.0012782213        7.6223286174
O         3.7816943006        0.0012837378        7.6213140385
O        13.2360799706        1.8844142322        2.8145863970
O        13.2360384155        0.0013330273        9.2050194406
O         3.7817199637        1.8848003084        4.3967936741
O         1.8849193502        5.6728036269        6.8009300341
O         0.0012940549       11.3490803250        1.9926837302
O         0.0012998311        5.6728027990        0.4096771529
O         1.8845454308       11.3490439953        5.2193367460
O         0.0012872722        7.5661844840        1.9940612991
O         1.8847981463        9.4571972621        6.8005268861
O         7.5661825259        1.8848761642        4.3971603985
O         9.4572062089        0.0013018898        9.2049557711
O         1.8848588843        7.5661827841        5.2178610236
O         0.0012862379        9.4571968310        0.4100656063
O         9.4571888486        1.8847989022        2.8145032821
O         7.5661957171        0.0012788954        7.6209707915
O         3.7751974632        0.0026499778        1.9924573633
O        13.2372078820        1.8897390971        6.8002130126
O         0.0026458107        5.6706064885        4.3959082321
O         1.8897822220       11.3541138095        9.2032441307
O        13.2371393869        0.0027074471        5.2175037781
O         3.7753162281        1.8898494022        0.4122167002
O         1.8898621376        5.6706728179        2.8162258156
O         0.0026710978       11.3542974064        7.6220460318
O        11.3541245641        1.8897886126        0.4117724207
O         5.6705965386        0.0026533936        5.2190996856
O         5.6706725433        1.8898575078        6.7987805453
O        11.3543176298        0.0026686232        1.9929791307
O         1.8898436031        3.7753145986        9.2028052192
O         0.0027072808       13.2371263458        4.3975304239
O         0.0026459309        3.7751698758        7.6225696444
O         1.8897306526       13.2372415653        2.8147938899
O         3.7754053660        3.7817293429        1.9927556353
O        13.2371824813       13.2360539749        6.8012477290
O        11.3489614146        5.6706248882        4.3949950272
O         5.6728088802       11.3538045704        9.2047015413
O        13.2372096822        3.7817050017        5.2175582611
O         3.7752054917       13.2361051955        0.4113138922
O         5.6728173017        5.6706743587        2.8144879669
O        11.3490394858       11.3541345191        7.6230681549
O        11.3543130768       13.2360682525        0.4107989343
O         5.6706367002        3.7817452217        5.2187227739
O         3.7817170249       11.3538927970        7.6219671157
O        13.2361167860        5.6706519260        2.8153703512
O         5.6706533637       13.2361236860        6.7996658766
O        11.3538888412        3.7817065807        1.9930548940
O        13.2360778049       11.3543134842        9.2042231170
O         3.7817254316        5.6706579386        4.3963142667
O         5.6706731792        5.6728221233        6.8005433078
O        11.3541133509       11.3490394826        1.9919488489
O        13.2361039870        3.7752265428        9.2037178650
O         3.7817053235       13.2371707492        4.3974712724
O        11.3538176933        5.6728042493        0.4103209619
O         5.6706174003       11.3489763180        5.2200224020
O         3.7817347787        3.7753832293        7.6222726002
O        13.2360557310       13.2371828033        2.8137584155
O        13.2371776000       11.3490913148        5.2185725407
O         3.7754564597        5.6728077492        0.4105509901
O         5.6728029967       13.2372671539        2.8134532410
O        11.3489883911        3.7752755430        7.6235050141
O         3.7752726390       11.3489794566        1.9915145700
O        13.2372341851        5.6728106069        6.8015779217
O        11.3490908872       13.2371650971        4.3964551246
O         5.6728194762        3.7754682821        9.2044695899
O         3.7754254816        7.5661597190        1.9931813087
O        13.2372550088        9.4572010039        6.8011952693
O         7.5661920831        5.6706364262        4.3967693478
O         9.4571875627       11.3538947988        9.2042911316
O        13.2372129253        7.5661922994        5.2172209021
O         3.7753959982        9.4571843066        0.4110378163
O         9.4571815086        5.6706740049        2.8149923114
O         7.5661730216       11.3538175072        7.6215960011
O        11.3539144642        9.4571928678        0.4107289751
O         5.6706366659        7.5661693546        5.2182465761
O         5.6706768887        9.4571683578        6.8000241393
O        11.3538018252        7.5661833033        1.9934262886
O         9.4571642409        3.7754186237        9.2039854566
O         7.5661994129       13.2371894611        4.3978091114
O         7.5661640221        3.7754277690        7.6218257140
O         9.4572023094       13.2372574843        2.8138279401
O         7.5686033075        0.0026378767        1.9921686976
O         9.4636477252        1.8898457589        6.7990620141
O         0.0026749972        9.4637425107        4.3962181289
O         1.8898729734        7.5685573301        9.2025539655
O         9.4637351103        0.0026661244        5.2187970733
O         7.5685650470        1.8898541140        0.4124727825
O         1.8898487025        9.4636614556        2.8159643412
O         0.0026490271        7.5685730845        7.6228451983
O         7.5685361087        3.7817313788        1.9925594855
O         9.4637540341       13.2361007811        6.7999627629
O        11.3489918414        9.4636311865        4.3952755405
O         5.6728082179        7.5685591254        9.2043045855
O         9.4635319530        3.7817373384        5.2185139052
O         7.5685705300       13.2361185010        0.4115838997
O         5.6727976850        9.4634863114        2.8143064329
O        11.3489504159        7.5685609277        7.6237553510
O         3.7817272789        7.5685450266        7.6224620413
O        13.2361113947        9.4637576232        2.8150640644
O        13.2361114568        7.5685889991        9.2034299577
O         3.7817470834        9.4635247017        4.3965093849
O         9.4634919175        5.6728015346        6.8007164267
O         7.5685870108       11.3489616526        1.9912587928
O         7.5685424606        5.6728159436        0.4107096483
O         9.4636202715       11.3489845083        5.2197477879
O         7.5685528134        7.5661744097        1.9930368695
O         9.4635449773        9.4571760564        6.8002432745
O         7.5661660579        9.4634600834        4.3969386871
O         9.4571720120        7.5685579362        9.2038019772
O         9.4634504198        7.5661946915        5.2180828608
O         7.5685501882        9.4571707490        0.4112319462
O         9.4571720228        9.4635275274        2.8147841706
O         7.5661752796        7.5685333810        7.6219856336
     192
 i =        2, E =     -5783.5046662895
Ti         0.0006277906        0.0006058135        0.0000052512
Ti         1.8905193546        1.8905373906        4.8075088029
Ti         0.0006282242        1.8904262664        2.4016001053
Ti         1.8904424144        0.0006352354        7.2134151027
Ti         0.0006361844        3.7786232335        0.0027675273
Ti         1.8904624651       13.2380091146        4.8053331008
Ti        11.3482418934        1.8905087060        2.4036921390
Ti         5.6728855634        0.0006469378        7.2153004330
Ti         1.8906122279        3.7787099422        7.2106391616
Ti         0.0006327574       13.2379730368        2.4037903872
Ti         5.6729232959        1.8906767321        4.8056323625
Ti        11.3482927780        0.0006081258       -0.0021070579
Ti         3.7786384588        0.0006356910       -0.0027610442
Ti        13.2380021146        1.8904649308        4.8096823159
Ti        13.2379874853        0.0006394024        7.2112474232
Ti         3.7787040814        1.8906187808        2.4043824154
Ti         1.8906738152        5.6729339529        4.8093733389
Ti         0.0006160676       11.3482938026        0.0020917556
Ti         0.0006413813        5.6728868401        2.3997087418
Ti         1.8905181634       11.3482456208        7.2113159497
Ti         0.0006389245        7.5661811893        0.0040109190
Ti         1.8906374443        9.4602512055        4.8080586475
Ti         7.5661845513        1.8906619235        2.4055988472
Ti         9.4602807455        0.0006481753        7.2139628316
Ti         1.8906674417        7.5661803040        7.2094271697
Ti         0.0006478831        9.4602773917        2.4010618881
Ti         9.4602440866        1.8906415432        4.8069586490
Ti         7.5661729354        0.0006341838       -0.0040025673
Ti         3.7787613741        3.7787656982        0.0000056884
Ti        13.2379994222       13.2380164534        4.8075244959
Ti        11.3481066694        5.6729056393        2.4018142089
Ti         5.6729135727       11.3480931503        7.2132016472
Ti        13.2379855504        3.7786645717        7.2084876910
Ti         3.7786593559       13.2379782880        2.4065439216
Ti         5.6729787785        5.6729836148        4.8075113796
Ti        11.3482297845       11.3482354420        0.0000017735
Ti        11.3483152462       13.2379913239        2.4058770253
Ti         5.6729381957        3.7787969849        7.2124455819
Ti         3.7786863817       11.3481347641       -0.0006757044
Ti        13.2380001697        5.6729089368        4.8115778995
Ti         5.6729170771       13.2380005215        4.8034513514
Ti        11.3481285075        3.7786752267        0.0006750765
Ti        13.2379950157       11.3483075936        7.2091446780
Ti         3.7787973312        5.6729434495        2.4025787625
Ti         3.7787872383        7.5661298987        0.0011499099
Ti        13.2380150651        9.4603041909        4.8102247679
Ti         7.5661278442        5.6729536808        2.4037168219
Ti         9.4602367442       11.3481429754        7.2118658046
Ti        13.2379961515        7.5661980783        7.2072387370
Ti         3.7787745103        9.4601536499        2.4038243332
Ti         9.4601544582        5.6729737006        4.8087484703
Ti         7.5661720641       11.3480938544       -0.0019061827
Ti        11.3481508351        9.4602324475        2.4031439019
Ti         5.6729598056        7.5661185390        7.2112907493
Ti         5.6729689675        9.4601559142        4.8062501276
Ti        11.3480908794        7.5661629618        0.0018984005
Ti         9.4601536597        3.7787708617        7.2111914255
Ti         7.5661983916       13.2379889184        2.4077831189
Ti         7.5661240474        3.7787804253       -0.0011527462
Ti         9.4603007790       13.2380234369        4.8047979197
Ti         7.5661147702        7.5661140256        0.0000023190
Ti         9.4601969553        9.4601906293        4.8075105908
Ti         7.5661430568        9.4601404729        2.4049635864
Ti         9.4601371487        7.5661397932        7.2100536464
O         0.0010744554        0.0017522486        1.9942809098
O         1.8841371364        1.8891095723        6.7993701611
O         0.0017962795        1.8840246224        4.3973208823
O         1.8890494046        0.0011352766        9.2038233033
O         1.8840312230        0.0018080379        5.2177002271
O         0.0011285662        1.8890434871        0.4111932691
O         1.8891014278        1.8841360030        2.8156519457
O         0.0017502254        0.0010720611        7.6207391621
O         0.0011619923        3.7787822832        1.9947942001
O         1.8840477672       13.2367937256        6.8010540612
O        11.3496176895        1.8841223886        4.3955586063
O         5.6715852887        0.0012021433        9.2068275205
O         1.8841442958        3.7788589140        5.2170972398
O         0.0010833898       13.2368290345        0.4094929740
O         5.6716314847        1.8842081258        2.8125692367
O        11.3496618143        0.0011168186        7.6225060706
O         3.7787813085        0.0011569667        7.6202250993
O        13.2367896826        1.8840483423        2.8139747990
O        13.2368258841        0.0010832409        9.2055246587
O         3.7788642994        1.8841522499        4.3979175722
O         1.8842158379        5.6716059458        6.8024534117
O         0.0011264076       11.3496569002        1.9925060204
O         0.0011954203        5.6716000881        0.4081952945
O         1.8841286796       11.3496174019        5.2194544760
O         0.0011908456        7.5675213303        1.9955256888
O         1.8841633565        9.4600804810        6.8016126350
O         7.5675053360        1.8841997386        4.3986595564
O         9.4601523587        0.0011687673        9.2060043147
O         1.8841927445        7.5675095126        5.2163663255
O         0.0011654011        9.4601285140        0.4090228046
O         9.4600684786        1.8841589666        2.8134110488
O         7.5675295388        0.0011861036        7.6195043210
O         3.7680638765        0.0018852492        1.9932751483
O        13.2373022498        1.8890466258        6.8000546368
O         0.0019329402        5.6654619831        4.3962966597
O         1.8890914311       11.3543722682        9.2031533930
O        13.2373381607        0.0017553076        5.2169798030
O         3.7683313304        1.8892370875        0.4120905494
O         1.8892930131        5.6656234777        2.8164810503
O         0.0017915152       11.3544534638        7.6214210816
O        11.3543675486        1.8890974812        0.4118615339
O         5.6654509294        0.0019284616        5.2187138040
O         5.6656311134        1.8892854005        6.7985286706
O        11.3544524151        0.0017924875        1.9936025492
O         1.8892272185        3.7683349805        9.2029319321
O         0.0017552136       13.2373342030        4.3980359930
O         0.0018810498        3.7680471331        7.6217432521
O         1.8890420595       13.2373189980        2.8149600178
O         3.7685544106        3.7789953922        1.9941725588
O        13.2373494754       13.2368401005        6.8017602294
O        11.3494364703        5.6655409685        4.3947094278
O         5.6716140877       11.3543111478        9.2062356662
O        13.2372516163        3.7788004134        5.2164771596
O         3.7680789513       13.2367069076        0.4105038745
O         5.6716808932        5.6656695701        2.8128334835
O        11.3496268538       11.3543682652        7.6231790668
O        11.3544476377       13.2367820227        0.4101749151
O         5.6655734449        3.7790779422        5.2175139054
O         3.7788554585       11.3543609015        7.6208285098
O        13.2366731495        5.6655533014        2.8149903994
O         5.6655587498       13.2366856860        6.8000343769
O        11.3543539036        3.7788475172        1.9941951507
O        13.2367931886       11.3544505239        9.2048410811
O         3.7790560907        5.6656092329        4.3975128797
O         5.6656659473        5.6716912373        6.8021953657
O        11.3543607088       11.3496212875        1.9918436338
O        13.2367105139        3.7680994902        9.2045211402
O         3.7787831371       13.2372404012        4.3985471158
O        11.3543180831        5.6716111199        0.4087901405
O         5.6655270683       11.3494444621        5.2203147249
O         3.7790105340        3.7685333365        7.6208610099
O        13.2368379099       13.2373519673        2.8132625369
O        13.2372873872       11.3496627545        5.2187599374
O         3.7687169661        5.6716491139        0.4087649071
O         5.6716101379       13.2372517641        2.8119618030
O        11.3494989281        3.7682865473        7.6234109416
O         3.7682918907       11.3495058414        1.9916151574
O        13.2372420247        5.6716069893        6.8030656728
O        11.3496693027       13.2372820171        4.3962630477
O         5.6716711187        3.7687228100        9.2062570347
O         3.7686812187        7.5674436435        1.9949443875
O        13.2372736956        9.4601454198        6.8022352059
O         7.5674588112        5.6655898593        4.3983979989
O         9.4600701792       11.3543612912        9.2053840916
O        13.2372307871        7.5675270483        5.2157542948
O         3.7685452288        9.4599325359        0.4096689294
O         9.4598677330        5.6656431510        2.8138335804
O         7.5674963621       11.3543174585        7.6200874640
O        11.3543712407        9.4600818523        0.4096342735
O         5.6655917624        7.5674268254        5.2166219207
O         5.6656515321        9.4598576306        6.8011776462
O        11.3543149731        7.5675060847        1.9949298621
O         9.4599203853        3.7685620509        9.2053505937
O         7.5675290068       13.2372197385        4.3992759016
O         7.5674400270        3.7686764522        7.6200632616
O         9.4601501626       13.2372831693        2.8127921884
O         7.5741908650        0.0019222325        1.9925626516
O         9.4704013097        1.8892312497        6.7991994071
O         0.0018890224        9.4706326346        4.3970519480
O         1.8892970576        7.5740761580        9.2023115227
O         9.4706279841        0.0018862942        5.2179682057
O         7.5740835314        1.8892849848        0.4127086500
O         1.8892356497        9.4704060240        2.8158246219
O         0.0019335439        7.5741363751        7.6224508759
O         7.5740164324        3.7790665877        1.9937712103
O         9.4706498174       13.2367162403        6.8007811625
O        11.3494985368        9.4703885928        4.3953844354
O         5.6716671647        7.5740339848        9.2059626546
O         9.4701515498        3.7789913319        5.2170941847
O         7.5741343243       13.2366727659        0.4112028065
O         5.6716474931        9.4700134754        2.8125092135
O        11.3494290880        7.5740739761        7.6240372570
O         3.7790610274        7.5740319406        7.6212422730
O        13.2367218865        9.4706548917        2.8142408523
O        13.2366657799        7.5741691035        9.2038060829
O         3.7790005303        9.4701418954        4.3979282186
O         9.4700165503        5.6716541526        6.8025018651
O         7.5741142224       11.3494381449        1.9909810605
O         7.5740004349        5.6716827342        0.4090598553
O         9.4703788489       11.3494889747        5.2196361778
O         7.5740102859        7.5674378135        1.9946619675
O         9.4701761403        9.4599477890        6.8016145830
O         7.5674353625        9.4699951502        4.3987010024
O         9.4598579660        7.5740544054        9.2049606249
O         9.4699821341        7.5674711883        5.2163190107
O         7.5740331544        9.4598560133        0.4100712758
O         9.4599404542        9.4701696421        2.8134156800
O         7.5674453237        7.5739830286        7.6203622289
     192
 i =        3, E =     -5783.5049644732
Ti         0.0006490485        0.0006276597        0.0000035428
Ti         1.8890486830        1.8890629501        4.8075089307
Ti         0.0006824952        1.8889683593        2.4020022774
Ti         1.8889866259        0.0006855373        7.2130147873
Ti         0.0007257612        3.7759388922        0.0028421614
Ti         1.8890069178       13.2378807655        4.8057315921
Ti        11.3496445692        1.8890373100        2.4036985009
Ti         5.6713700176        0.0007744367        7.2158727650
Ti         1.8891334961        3.7760403956        7.2101354436
Ti         0.0006545347       13.2378785426        2.4037922023
Ti         5.6714072731        1.8892484992        4.8046237429
Ti        11.3496787320        0.0006600448       -0.0017113814
Ti         3.7759533463        0.0007244710       -0.0028344776
Ti        13.2378756315        1.8890059866        4.8092837175
Ti        13.2378956825        0.0006629177        7.2112483865
Ti         3.7760364988        1.8891389623        2.4048844545
Ti         1.8892486978        5.6714188289        4.8103843911
Ti         0.0006687530       11.3496827442        0.0016939341
Ti         0.0007726538        5.6713702290        2.3991369209
Ti         1.8890477732       11.3496458057        7.2113152137
Ti         0.0007697095        7.5678249187        0.0045514345
Ti         1.8891563850        9.4629007452        4.8085335980
Ti         7.5678247026        1.8892357540        2.4065738720
Ti         9.4629466153        0.0007319620        7.2140092813
Ti         1.8892383911        7.5678193863        7.2084493236
Ti         0.0007286245        9.4629464667        2.4010149710
Ti         9.4628944343        1.8891639757        4.8064844538
Ti         7.5678185620        0.0007651605       -0.0045427208
Ti         3.7761420781        3.7761435521        0.0000031740
Ti        13.2379075135       13.2379242263        4.8075236383
Ti        11.3494641159        5.6713952677        2.4008084812
Ti         5.6714023764       11.3494500143        7.2142049550
Ti        13.2378177403        3.7759763399        7.2084116166
Ti         3.7759738882       13.2378113543        2.4066166484
Ti         5.6714927658        5.6714965637        4.8075099907
Ti        11.3496309731       11.3496357273        0.0000008321
Ti        11.3497002281       13.2378674273        2.4054828182
Ti         5.6714254681        3.7762352599        7.2129153559
Ti         3.7760174099       11.3495455392       -0.0011727937
Ti        13.2377942631        5.6713885210        4.8121469791
Ti         5.6713955179       13.2377936198        4.8028781825
Ti        11.3495391584        3.7760070989        0.0011706824
Ti        13.2378669548       11.3496939383        7.2095430395
Ti         3.7762355445        5.6714311857        2.4021049479
Ti         3.7762251620        7.5677704805        0.0015964802
Ti        13.2378498556        9.4629741995        4.8102708113
Ti         7.5677352068        5.6714732917        2.4036907754
Ti         9.4628852506       11.3495499763        7.2123336757
Ti        13.2377896386        7.5678443063        7.2066985188
Ti         3.7761487823        9.4627542043        2.4038511411
Ti         9.4626908459        5.6714543547        4.8092547348
Ti         7.5678081980       11.3494552695       -0.0028779490
Ti        11.3495557871        9.4628821330        2.4026731213
Ti         5.6714772481        7.5677267613        7.2113175152
Ti         5.6714508066        9.4626935459        4.8057478865
Ti        11.3494536031        7.5678019625        0.0028702546
Ti         9.4627524419        3.7761498134        7.2111611767
Ti         7.5678479851       13.2377837302        2.4083233538
Ti         7.5677633862        3.7762210823       -0.0015986123
Ti         9.4629671296       13.2378618016        4.8047506045
Ti         7.5677230271        7.5677225980        0.0000026855
Ti         9.4627971008        9.4627942925        4.8075080661
Ti         7.5677887488        9.4626777193        2.4054409650
Ti         9.4626773384        7.5677817164        7.2095737638
O         0.0013904576        0.0017058016        1.9938659974
O         1.8846011344        1.8877261757        6.7997898136
O         0.0017192213        1.8844701874        4.3981676067
O         1.8876597838        0.0014540596        9.2030277456
O         1.8844707114        0.0017227835        5.2168552654
O         0.0014541421        1.8876581939        0.4119938237
O         1.8877242963        1.8846022471        2.8152299590
O         0.0017068772        0.0013918343        7.6211519439
O         0.0014605023        3.7768733903        1.9934864250
O         1.8844665072       13.2368041586        6.8019253676
O        11.3509397741        1.8846043009        4.3960487974
O         5.6709491310        0.0014516257        9.2065511998
O         1.8846199112        3.7769200429        5.2171545007
O         0.0013874643       13.2368134271        0.4098808245
O         5.6709921315        1.8846122734        2.8116219255
O        11.3510005131        0.0014567996        7.6232387834
O         3.7768752317        0.0014632375        7.6215299800
O        13.2368037501        1.8844660049        2.8130960254
O        13.2368109528        0.0013857495        9.2051359434
O         3.7769259609        1.8846227946        4.3978555031
O         1.8846155709        5.6709672129        6.8034006935
O         0.0014562137       11.3509991158        1.9917745593