     192
 i =        1, E =     -5783.2427936891
Ti        -0.0039092816        0.0147722461       -0.0061550073
Ti        -0.0080677664       -0.0034640984       -0.0159845640
Ti        -0.0063246029        0.0015661860       -0.0152217505
Ti        -0.0065987147        0.0090251875        0.0134437668
Ti        -0.0053110086       -0.0061017970        0.0142853888
Ti         0.0036189646        0.0026416982        0.0025918008
Ti         0.0036083361        0.0029999961       -0.0260801450
Ti        -0.0000146781        0.0066761480        0.0043382483
Ti        -0.0002454873       -0.0126145774       -0.0056282860
Ti        -0.0114881726       -0.0037002798        0.0004646629
Ti        -0.0146417840        0.0020876322        0.0002740957
Ti        -0.0048930211       -0.0072058682       -0.0007611116
Ti        -0.0004406791       -0.0051452153       -0.0051901660
Ti         0.0143332825        0.0048855107        0.0229268720
Ti        -0.0140863304        0.0083338349        0.0085151874
Ti         0.0029802994        0.0205782323       -0.0138258669
Ti        -0.0016401780        0.0067010348       -0.0181710865
Ti        -0.0015740798       -0.0016550429       -0.0095316876
Ti         0.0065331613        0.0042399328        0.0042014528
Ti         0.0102563978        0.0073193960       -0.0170590282
Ti        -0.0094549965        0.0076105781       -0.0095191884
Ti        -0.0032191713       -0.0105981046       -0.0317536158
Ti        -0.0018149792       -0.0124227829       -0.0072920649
Ti        -0.0036532109        0.0080068835        0.0007354293
Ti        -0.0011861393       -0.0060901944        0.0094474585
Ti         0.0001023908       -0.0062924577        0.0117129193
Ti        -0.0000050526        0.0012145181        0.0087570368
Ti         0.0142925089        0.0074202327        0.0279607581
Ti         0.0151517450        0.0003687400        0.0057449187
Ti        -0.0104768021        0.0200734011       -0.0079176852
Ti         0.0065569841       -0.0074849562        0.0013665036
Ti        -0.0020137659       -0.0033872136        0.0116382670
Ti         0.0047062804        0.0023885360       -0.0114090988
Ti         0.0053421904        0.0171460804        0.0010576383
Ti         0.0151076628       -0.0086420451       -0.0082515647
Ti         0.0009020567        0.0028763408       -0.0118494344
Ti         0.0008603720        0.0023531472       -0.0017747457
Ti        -0.0035132895        0.0007463570        0.0009272225
Ti        -0.0052119105       -0.0023829706       -0.0160394795
Ti        -0.0107316723        0.0098896316        0.0004774969
Ti        -0.0093015522       -0.0069698007       -0.0061908749
Ti         0.0038844931        0.0136233665        0.0101591772
Ti         0.0078319761        0.0024158872        0.0001403966
Ti         0.0044285965        0.0077942821        0.0057665917
Ti         0.0021170742        0.0101046995       -0.0175033184
Ti         0.0010652812        0.0074792577       -0.0030855554
Ti         0.0028154151        0.0063703707       -0.0022707302
Ti        -0.0078120592        0.0282758891        0.0049858965
Ti        -0.0069702077        0.0000413636        0.0200385922
Ti        -0.0119665133        0.0058595495        0.0006187402
Ti        -0.0032287104        0.0018366641        0.0099942277
Ti         0.0092759168        0.0000002055       -0.0146808192
Ti         0.0106958876        0.0054185524       -0.0062177635
Ti         0.0058211353       -0.0084212860        0.0052863107
Ti        -0.0126740812        0.0055082895        0.0017996521
Ti         0.0027092043        0.0080569009       -0.0065687412
Ti        -0.0042513360       -0.0023052760       -0.0018123214
Ti         0.0096262753       -0.0072063890       -0.0027869077
Ti         0.0102681383       -0.0026669062        0.0033582958
Ti        -0.0074888669       -0.0083526055        0.0094099300
Ti         0.0015682653        0.0025055208       -0.0047876186
Ti         0.0002051201        0.0008135446        0.0059265482
Ti        -0.0012592358        0.0053184402        0.0043925076
Ti        -0.0112358129        0.0059516306        0.0061649837
O         0.0012623967        0.0014650091       -0.0077159605
O         0.0099029421       -0.0019434566        0.0158565923
O         0.0160735113       -0.0033374677        0.0039355438
O         0.0037478585       -0.0032055528       -0.0046553316
O         0.0008879172       -0.0000271315       -0.0064394718
O         0.0054584382       -0.0018364162       -0.0052902362
O         0.0042150251       -0.0110164771       -0.0009737349
O         0.0161906140       -0.0010359756        0.0046198145
O        -0.0031006673       -0.0036430993       -0.0054644271
O        -0.0005473613       -0.0173407326        0.0023146285
O        -0.0129331783       -0.0004129614        0.0174122675
O        -0.0185566037        0.0045596425       -0.0032175509
O        -0.0047852216        0.0103766152        0.0056129942
O         0.0012216304       -0.0026075469        0.0014716654
O         0.0016313754        0.0060103796       -0.0032368589
O         0.0074161944        0.0008327449        0.0021742717
O         0.0006081634       -0.0036188224       -0.0051109885
O        -0.0009585653        0.0030297428       -0.0079657830
O         0.0081604602        0.0084442005       -0.0078848611
O         0.0060682988        0.0005903415        0.0176022493
O        -0.0042644931        0.0095603191        0.0178309596
O        -0.0022300401       -0.0085723853        0.0031589126
O        -0.0061372112       -0.0114517541        0.0001928201
O        -0.0014733536        0.0149138643        0.0035096090
O        -0.0003060475       -0.0047827221        0.0011189996
O        -0.0096633536       -0.0019014281        0.0194469618
O         0.0174314216        0.0044690975        0.0055006889
O         0.0031576651       -0.0018447876       -0.0053624186
O         0.0085606508       -0.0002335077       -0.0061016916
O        -0.0031542394       -0.0039325193       -0.0012904997
O         0.0041912834       -0.0055981842       -0.0101863743
O        -0.0031083157        0.0025770277       -0.0229073337
O        -0.0007222529       -0.0122659719       -0.0005398737
O         0.0055161090        0.0033685147       -0.0037286480
O         0.0110671082       -0.0009439628       -0.0080788583
O        -0.0135833103        0.0001882513        0.0039459988
O         0.0060859912        0.0102327661        0.0054875640
O         0.0005412828       -0.0051301778        0.0058879458
O        -0.0071371962       -0.0058614255       -0.0085793440
O        -0.0251804565        0.0022250037        0.0099277689
O        -0.0029218317       -0.0151256218        0.0071491831
O        -0.0032402096        0.0143475539       -0.0042429598
O         0.0068377898       -0.0018576700        0.0012062886
O         0.0034433412       -0.0008382535        0.0057252970
O        -0.0135005707       -0.0011968811        0.0058552764
O         0.0068124787        0.0054666545       -0.0101784293
O        -0.0080483356       -0.0005752567       -0.0072861283
O         0.0043696703       -0.0006887238        0.0008195529
O        -0.0079534920       -0.0077941772       -0.0059645676
O         0.0053197677       -0.0183956182        0.0042565791
O         0.0038513293       -0.0003680993        0.0036688429
O         0.0014905645       -0.0006749128       -0.0038958784
O        -0.0032812583       -0.0135708989        0.0007403478
O         0.0009372122        0.0004460254       -0.0107651589
O        -0.0149881470       -0.0049637019        0.0042420044
O         0.0012471542       -0.0003991418       -0.0016775252
O         0.0027737246        0.0116071857       -0.0058050936
O         0.0095374395       -0.0032137871        0.0011286212
O         0.0116374211        0.0003233851        0.0006849926
O         0.0036209619       -0.0040618207        0.0010081834
O        -0.0014848156        0.0005481055        0.0072031211
O        -0.0083760384       -0.0064785594        0.0067046765
O         0.0082801919        0.0011950366        0.0000097329
O        -0.0100083142        0.0000873176       -0.0017481780
O        -0.0021590529        0.0053222839        0.0045745523
O         0.0109127975       -0.0193483552        0.0076045417
O         0.0010048130       -0.0009865830        0.0055581233
O        -0.0062506923        0.0017227609        0.0106829253
O         0.0047995015       -0.0042261287       -0.0016664691
O        -0.0071960116       -0.0050424356       -0.0035620901
O         0.0074577769       -0.0002852864       -0.0017448143
O         0.0054910023        0.0060366512        0.0123449465
O         0.0014387761       -0.0328773219        0.0035669278
O         0.0029356699       -0.0004772544        0.0007616637
O        -0.0025125699        0.0077902084       -0.0023890922
O         0.0055327362        0.0021840086        0.0021509760
O        -0.0029514055       -0.0130013886        0.0105382758
O         0.0004716895        0.0042737597       -0.0060535223
O         0.0209237561       -0.0037019889        0.0057373305
O        -0.0121322445       -0.0021767645        0.0031709855
O        -0.0025953859       -0.0106584239        0.0091346122
O        -0.0002026197       -0.0084591020        0.0100063100
O         0.0020172849       -0.0008726506        0.0040490693
O        -0.0063632634       -0.0015344060       -0.0087249435
O         0.0017750733       -0.0049198391       -0.0326881467
O        -0.0001140129       -0.0043132127        0.0025181203
O        -0.0182448060       -0.0008082208       -0.0012921153
O         0.0062684290       -0.0027226722        0.0021638785
O         0.0035368338       -0.0031053160        0.0116336258
O        -0.0004884550       -0.0013865742        0.0046992161
O         0.0034809902        0.0010367373       -0.0019284650
O         0.0083372417        0.0023711818       -0.0062456040
O        -0.0115909449       -0.0021171873       -0.0023767337
O         0.0028218006        0.0047474016       -0.0078667832
O         0.0068072560        0.0042571371        0.0054919878
O        -0.0095781440       -0.0085253813       -0.0104979812
O         0.0037064146        0.0191681328       -0.0037003921
O         0.0082364824        0.0034615513        0.0077589351
O        -0.0016394980        0.0083738158       -0.0096348540
O         0.0006521399        0.0097622906        0.0004177129
O         0.0047110057        0.0003540182       -0.0002355834
O        -0.0080061592       -0.0033565688       -0.0075881801
O        -0.0022094545       -0.0070016986        0.0022793245
O         0.0008498408        0.0017076650        0.0028746337
O        -0.0041382615        0.0094773102       -0.0017653870
O        -0.0025687069       -0.0062798678        0.0044118703
O        -0.0080174054        0.0024310503        0.0052764731
O        -0.0033761343       -0.0052723730        0.0080940456
O        -0.0025224871        0.0053663082        0.0009974473
O         0.0017801904        0.0130357389        0.0032863288
O         0.0049918797        0.0026309809        0.0050332936
O         0.0232402743       -0.0018260481        0.0109365077
O        -0.0019444313        0.0041266802       -0.0010307399
O        -0.0125839718       -0.0019066338       -0.0003894224
O         0.0063957635       -0.0031868356       -0.0111317676
O        -0.0031815377       -0.0025335238        0.0081644007
O        -0.0073094722        0.0097833266        0.0003374747
O         0.0026518962        0.0002722917        0.0061535662
O         0.0068772548       -0.0012594264        0.0017447875
O        -0.0016519782        0.0069973683        0.0016836694
O        -0.0065891777       -0.0107082892        0.0039821382
O         0.0010880999       -0.0238066698       -0.0017013971
O         0.0228620247        0.0020355651        0.0017100988
O        -0.0076699291        0.0053414459       -0.0076710074
O         0.0041778719       -0.0038759235       -0.0071209030
O         0.0022105151       -0.0105443012        0.0014189266
O        -0.0213763786        0.0015917761       -0.0059998013
O        -0.0025602217       -0.0043121861        0.0034656453
     192
 i =        2, E =     -5783.3347889162
Ti        -0.0023280927        0.0034393725        0.0025778002
Ti         0.0011516139       -0.0036065605       -0.0044490480
Ti        -0.0037243175       -0.0013862722       -0.0114906264
Ti         0.0009744340        0.0167717204        0.0045899977
Ti         0.0024975643       -0.0029816476        0.0032274865
Ti        -0.0036858133        0.0061420772       -0.0048246360
Ti        -0.0006404244        0.0042226872       -0.0063689458
Ti         0.0003626946        0.0070650721        0.0062054407
Ti        -0.0050178882       -0.0084882181       -0.0025087122
Ti        -0.0010334117       -0.0015292375       -0.0036498702
Ti        -0.0073135503       -0.0000309995        0.0022583659
Ti         0.0018079937        0.0011100672       -0.0035910129
Ti         0.0045855385       -0.0039723892       -0.0038271157
Ti         0.0029168139        0.0068760768        0.0150861878
Ti        -0.0103168768        0.0078648835        0.0022029565
Ti        -0.0022255423        0.0142356578       -0.0104048014
Ti         0.0004148888        0.0036277591       -0.0107756177
Ti        -0.0017302669        0.0053053828       -0.0055598552
Ti         0.0092780257        0.0047416641        0.0028254199
Ti         0.0010031785       -0.0031594934       -0.0112312518
Ti        -0.0041419576        0.0072392063       -0.0112905942
Ti        -0.0050497464       -0.0096063471       -0.0108465870
Ti         0.0041048912       -0.0014347078        0.0042804128
Ti        -0.0078755574        0.0086907221       -0.0012830125
Ti        -0.0059945744       -0.0023583506        0.0064397866
Ti        -0.0070435983       -0.0024931229        0.0041899688
Ti         0.0011378401        0.0059534260       -0.0017073434
Ti         0.0001799770        0.0092398064        0.0064986857
Ti         0.0061408998        0.0050624848        0.0063897446
Ti        -0.0011344344        0.0167256820       -0.0037834307
Ti         0.0014801254       -0.0003316824        0.0025590013
Ti        -0.0064916215       -0.0019378481        0.0061621671
Ti         0.0119645513       -0.0006139454       -0.0089537529
Ti        -0.0052310126        0.0112489443       -0.0053430259
Ti         0.0074043986       -0.0037204079       -0.0042613453
Ti         0.0146549597       -0.0067724456       -0.0096145220
Ti         0.0013456056        0.0007210421        0.0065628095
Ti        -0.0021397594        0.0001993927        0.0033672059
Ti        -0.0066305635        0.0062046526       -0.0074847555
Ti        -0.0036666850        0.0096211135       -0.0024723115
Ti        -0.0094449079        0.0007742096        0.0027194250
Ti         0.0049378546        0.0076401403        0.0056949634
Ti         0.0100192161       -0.0009922562        0.0030154447
Ti        -0.0033073853        0.0035649914        0.0030179933
Ti        -0.0011955960       -0.0042025454       -0.0115081702
Ti         0.0001152433       -0.0004434824       -0.0024165985
Ti         0.0111022946        0.0025772435       -0.0070205281
Ti         0.0013751308        0.0129077877       -0.0010811633
Ti        -0.0022526488        0.0066589655        0.0159530969
Ti        -0.0075393465        0.0041860598        0.0030468176
Ti        -0.0076726725        0.0044875926        0.0061193590
Ti        -0.0029307671       -0.0055562794       -0.0009945326
Ti         0.0074081171        0.0020228815       -0.0051981267
Ti         0.0057685910       -0.0081821530       -0.0016975211
Ti        -0.0032036731       -0.0033883683        0.0035664826
Ti         0.0067957570        0.0078880377       -0.0045088922
Ti        -0.0076035501        0.0004150086       -0.0033580039
Ti         0.0087967568       -0.0103757601       -0.0002015788
Ti         0.0035963248        0.0056361804        0.0043258354
Ti        -0.0039345388       -0.0036016587        0.0051563113
Ti        -0.0024069916       -0.0022326450        0.0008554958
Ti        -0.0037691637       -0.0095135691        0.0003060821
Ti         0.0048974139        0.0026679348        0.0053290739
Ti        -0.0090028729        0.0064525914        0.0007522190
O        -0.0012031450        0.0117161342       -0.0007499318
O         0.0016635380        0.0011411402        0.0057215807
O         0.0027967856       -0.0032050155        0.0066987499
O         0.0074412802        0.0012494560        0.0004939213
O        -0.0013294482       -0.0035146041       -0.0044175402
O         0.0001774599       -0.0073352746        0.0039287847
O         0.0020458130       -0.0053375700        0.0001167583
O         0.0076386545       -0.0011851823       -0.0018688540
O        -0.0020035721       -0.0054672087       -0.0038976176
O        -0.0021826646       -0.0119760366        0.0000010379
O        -0.0057064468       -0.0007581904        0.0088466468
O        -0.0040165979       -0.0025744374       -0.0016042672
O        -0.0017246109        0.0007559376        0.0060727912
O        -0.0005975997       -0.0078804704       -0.0024816899
O         0.0050644210       -0.0000161224       -0.0003349025
O         0.0013017410       -0.0029942871        0.0017151074
O         0.0036006583       -0.0047276332        0.0002919332
O         0.0046441413       -0.0021037039       -0.0050212628
O        -0.0013846979        0.0046127991        0.0001963628
O         0.0075775127        0.0044319164        0.0075348038
O         0.0001048154        0.0052843051        0.0085570110
O        -0.0025191992       -0.0066913762        0.0060416631
O        -0.0012537263       -0.0043805137       -0.0000630905
O        -0.0001522632        0.0071883008        0.0011292615
O        -0.0038855111       -0.0025684315        0.0044213363
O        -0.0030532141        0.0023033143        0.0072674713
O         0.0066269317       -0.0023444376        0.0003266062
O         0.0019348025       -0.0010667681        0.0001089193
O         0.0009379385        0.0041731044       -0.0074383868
O        -0.0065904127       -0.0003237480       -0.0010487372
O         0.0031636975       -0.0016777376       -0.0075562444
O         0.0013893176        0.0010074836       -0.0052527616
O         0.0010114167       -0.0144839366       -0.0010633168
O         0.0004425227        0.0029625806       -0.0024908338
O         0.0087661341       -0.0000737722       -0.0041496858
O        -0.0010277901       -0.0005016576        0.0020669014
O         0.0015837063       -0.0022885840        0.0022144637
O        -0.0003661007        0.0011006563        0.0049365805
O        -0.0091638407       -0.0004558649        0.0001738784
O        -0.0065943117        0.0001764748        0.0039303640
O        -0.0035716977       -0.0086859465        0.0074715578
O        -0.0037613935       -0.0030075210       -0.0037053221
O         0.0013015731        0.0054313842        0.0010317169
O        -0.0002795009       -0.0146255527        0.0021620591
O        -0.0041327425        0.0022967306       -0.0029642791
O        -0.0017492037       -0.0015776148        0.0000178032
O        -0.0023541452       -0.0009514956       -0.0060637894
O         0.0101897765       -0.0017976632        0.0019058997
O        -0.0039540462       -0.0151512183       -0.0048993860
O         0.0040438376       -0.0045904343       -0.0076500082
O         0.0028912829       -0.0006076191       -0.0055019320
O         0.0020008777       -0.0026482982       -0.0016917305
O         0.0015317114       -0.0157768616       -0.0007795319
O         0.0017611223       -0.0001821019       -0.0039823414
O        -0.0096585709       -0.0023942129        0.0031371679
O        -0.0046065300       -0.0004041018        0.0066321221
O         0.0027070864        0.0038617707        0.0041087578
O        -0.0013463585       -0.0000721499        0.0025920612
O         0.0051549578       -0.0046630046        0.0061372555
O        -0.0067363355       -0.0028896661       -0.0000186171
O         0.0023829968       -0.0027733292       -0.0037518872
O        -0.0048693320        0.0074983261       -0.0042383531
O        -0.0112689931       -0.0056544473        0.0044752353
O        -0.0080222209       -0.0036141429        0.0022355890
O        -0.0037042014        0.0032596257        0.0067767517
O         0.0063747120        0.0040062072       -0.0005484433
O        -0.0087382884        0.0017147936        0.0045163735
O         0.0025106264       -0.0003965164        0.0000745501
O        -0.0000398037       -0.0097267170        0.0033267096
O        -0.0038968589        0.0056634790       -0.0050818373
O         0.0043768553        0.0007469484       -0.0027152875
O        -0.0082226048       -0.0004669949        0.0036033503
O         0.0046539081       -0.0044970468        0.0014320181
O         0.0039310740        0.0033421390       -0.0033565122
O        -0.0061703026        0.0030709144       -0.0001998375
O         0.0009894781        0.0031427600        0.0047155338
O        -0.0027309408       -0.0090072391        0.0064662093
O        -0.0001691039       -0.0026105581        0.0029443735
O         0.0094430172       -0.0033814044        0.0001439623
O        -0.0079528829       -0.0017810278       -0.0014575203
O         0.0021674605       -0.0002938613        0.0028437604
O        -0.0017039016       -0.0101884840        0.0039643559
O        -0.0040122810        0.0026404014        0.0057846196
O        -0.0043903437        0.0003685261        0.0005447000
O         0.0016716778       -0.0005185259       -0.0190359407
O         0.0017805613       -0.0012012110        0.0032934262
O         0.0036160046        0.0028927420       -0.0026623279
O         0.0108838629        0.0000759911        0.0040753123
O        -0.0008038619        0.0055281324       -0.0050202294
O         0.0006497360        0.0009388527        0.0048064485
O        -0.0009052811        0.0046543750        0.0008069809
O         0.0005052080       -0.0113099501        0.0020067430
O         0.0021889954       -0.0028102762        0.0018830626
O         0.0072599004        0.0038606452       -0.0011870190
O         0.0026903356        0.0026699295        0.0014028787
O         0.0028440197       -0.0036420511       -0.0058885743
O        -0.0005899359        0.0106774025       -0.0051962981
O         0.0040135448       -0.0000033241        0.0017802482
O         0.0075786034        0.0012355476       -0.0070417326
O         0.0007007000        0.0010007528       -0.0021049672
O         0.0009260327       -0.0057712751       -0.0025517241
O         0.0000813600       -0.0063093175       -0.0038537755
O         0.0089521915       -0.0027642404        0.0055148576
O         0.0018705163       -0.0030933527        0.0006148204
O        -0.0006384167       -0.0034644226       -0.0008800109
O        -0.0028120356       -0.0074090394       -0.0011684660
O        -0.0029830562        0.0052072329        0.0033983586
O        -0.0039850326       -0.0011245648        0.0022917482
O         0.0036908042       -0.0008455383        0.0036107887
O        -0.0002384792       -0.0007567899       -0.0015374478
O         0.0002198074        0.0014882336       -0.0010876373
O         0.0137891921       -0.0042178865       -0.0036257870
O        -0.0001759112        0.0033868343        0.0042341720
O        -0.0034612022       -0.0022942732        0.0013083965
O         0.0036025766       -0.0001171589       -0.0003562597
O        -0.0062199874        0.0039726806        0.0064612376
O        -0.0010879757        0.0064661829        0.0018771441
O        -0.0042489253        0.0035606852       -0.0021760586
O         0.0028267201        0.0008647663       -0.0067385588
O        -0.0037352732        0.0102317671        0.0007383101
O        -0.0038453691        0.0028627685        0.0006139849
O        -0.0002672192       -0.0088150771       -0.0061662731
O         0.0101186938        0.0038232743        0.0012733948
O        -0.0013302270        0.0016986624        0.0016180655
O         0.0037320389        0.0000526349       -0.0035020872
O         0.0002410807       -0.0003888091        0.0010888050
O        -0.0081417785        0.0002715420       -0.0026578583
O         0.0001071273       -0.0003450153        0.0032258283
     192
 i =        3, E =     -5783.3716326837
Ti        -0.0022651062        0.0007306944        0.0025710058
Ti         0.0036132864       -0.0014688188       -0.0024252827
Ti        -0.0031427810       -0.0042289039       -0.0065434938
Ti         0.0003721480        0.0115499295        0.0009383845
Ti         0.0035721027        0.0015075950        0.0000419835
Ti        -0.0049504828        0.0038960533       -0.0038519155
Ti        -0.0031854302        0.0008670198       -0.0021258262
Ti         0.0001168264        0.0009949898        0.0035137366
Ti        -0.0042370355       -0.0030131885       -0.0014298032
Ti         0.0014597814       -0.0035011539       -0.0024667056
Ti        -0.0065228971       -0.0018646222       -0.0003077447
Ti         0.0018852304        0.0003756381       -0.0005839537
Ti         0.0056628287       -0.0058132755       -0.0035187063
Ti         0.0007849018        0.0063254578        0.0084456864
Ti        -0.0044433375        0.0014036537       -0.0017441985
Ti        -0.0013671227        0.0113146115       -0.0042136098
Ti        -0.0003441327        0.0016821978       -0.0044605281
Ti         0.0014244888        0.0055525715        0.0006420630
Ti         0.0084586163        0.0070819101       -0.0011925686
Ti         0.0023943974       -0.0050790353       -0.0057570536
Ti         0.0016893112       -0.0001074660       -0.0067071541
Ti        -0.0044368802       -0.0073248340       -0.0028738772
Ti         0.0043949757        0.0026025109        0.0053339220
Ti        -0.0082991501        0.0069090603       -0.0022300923
Ti        -0.0041734461       -0.0008669495        0.0046438754
Ti        -0.0075622240        0.0001727143        0.0000215419
Ti         0.0044321833        0.0033990289       -0.0010950558
Ti        -0.0012885486        0.0045390506        0.0007279076
Ti         0.0020150550        0.0069785428        0.0029915260
Ti         0.0026035833        0.0084359327        0.0043566059
Ti        -0.0012165886        0.0026074873        0.0026581867
Ti        -0.0051633533       -0.0001097302        0.0028254670
Ti         0.0080091603        0.0006625922       -0.0040818698
Ti        -0.0046228831        0.0035145438       -0.0029396464
Ti         0.0035144966       -0.0017050979       -0.0062939860
Ti         0.0143784632       -0.0058641487       -0.0057729327
Ti        -0.0001867837       -0.0001383063        0.0028449402
Ti        -0.0033438535       -0.0001391624        0.0048639698
Ti        -0.0054593760        0.0040757809       -0.0038533681
Ti        -0.0023222678        0.0104649423       -0.0021231671
Ti        -0.0080305305        0.0020041557        0.0053465112
Ti         0.0035591604        0.0066291483        0.0005323430
Ti         0.0053692924        0.0017415392       -0.0049366223
Ti        -0.0012038473        0.0054677135        0.0014874782
Ti         0.0005957491       -0.0039400897       -0.0058863025
Ti        -0.0043470223       -0.0018235177       -0.0018335337
Ti         0.0081140768        0.0024010830       -0.0047205804
Ti         0.0029317515        0.0076055088       -0.0008163112
Ti        -0.0015744754        0.0072421271        0.0061801478
Ti        -0.0023445715        0.0029625932       -0.0006089714
Ti        -0.0039424861        0.0067175011        0.0036502106
Ti        -0.0053314875       -0.0049071138        0.0021162426
Ti         0.0023410862        0.0012331557       -0.0020887134
Ti         0.0019582758       -0.0034873522       -0.0012369248
Ti        -0.0002025953       -0.0028866659        0.0028151982
Ti         0.0025016350        0.0044756302       -0.0011463061
Ti        -0.0023890774        0.0011427345       -0.0016773532
Ti         0.0062913501       -0.0119325782        0.0001827921
Ti         0.0021032262        0.0051100474        0.0041939813
Ti        -0.0040358021       -0.0018159381        0.0023014818
Ti        -0.0035738165        0.0012006100        0.0041457817
Ti        -0.0022966014       -0.0095756686        0.0010411022
Ti         0.0037064073        0.0009087937        0.0022915335
Ti        -0.0045857142        0.0049834700       -0.0009711152
O        -0.0007494440        0.0028986649        0.0020055187
O         0.0029269953       -0.0026124537        0.0044533081
O        -0.0045964524       -0.0001564808        0.0038775791
O         0.0018707312        0.0019986143        0.0013300821
O         0.0020302101        0.0002750731       -0.0027895458
O         0.0009605683       -0.0038185573        0.0026198638
O         0.0028086154       -0.0019167274        0.0034510066
O         0.0047096675        0.0006601570       -0.0006281379
O         0.0028463703       -0.0056651728       -0.0011890865
O        -0.0028845059       -0.0041639864       -0.0008540639
O         0.0017345268        0.0000769195        0.0030996541
O         0.0031840922       -0.0010470662       -0.0009112114
O        -0.0039628097       -0.0011932027        0.0030586568
O        -0.0018403344       -0.0026619528       -0.0024876351
O         0.0035839011       -0.0041919182        0.0010170147
O         0.0033592318       -0.0011282043        0.0012866515
O         0.0008126520        0.0016422798       -0.0006656619
O         0.0037491382       -0.0007970910       -0.0023807544
O        -0.0028892338        0.0006238556        0.0009458811
O         0.0043850152        0.0034527301        0.0028209925
O         0.0012589419        0.0011483442        0.0033453428
O         0.0035807193       -0.0020917010        0.0044743668