     192
 i =        1, E =     -5783.2427936891
Ti        -0.0630640804        0.0923688305        0.0661805276
Ti         1.8670030707        1.9239708175        4.8995426982
Ti         0.0471261679        2.0303372526        2.5310863276
Ti         1.8644863276       -0.0469946917        7.1722619863
Ti        -0.0341843054        3.8297567841       -0.0533917120
Ti         1.9500427845       13.1924027757        4.8339465052
Ti        11.2879979047        1.9809554691        2.4510894884
Ti         5.6075921243       -0.0902952845        7.2231588216
Ti         1.9056857096        3.8179634893        7.2358148350
Ti         0.0245230592       13.3479800546        2.4741759375
Ti         5.6781683375        1.8367017612        4.8276074442
Ti        11.3032220561        0.1156930538       -0.0453009426
Ti         3.6765889120        0.0973580394        0.0483984449
Ti        13.1229940136        1.7697343049        4.7041957067
Ti        13.2672646392       -0.0450072892        7.1548222659
Ti         3.7504972493        1.8024577001        2.5225774978
Ti         1.9718814660        5.6388280113        4.8508149414
Ti         0.0002765112       11.5659508768        0.0052364762
Ti        -0.0227588373        5.7224397848        2.4870648582
Ti         1.8976555513       11.3173565101        7.3612964953
Ti         0.0714491764        7.5047064524        0.0534070663
Ti         2.0392267900        9.5182431833        4.9044826060
Ti         7.4986354388        1.9574451882        2.3505755629
Ti         9.4697444335       -0.1315680728        7.2260407800
Ti         1.9465254885        7.5793657621        7.1610048783
Ti         0.1327506145        9.5810441089        2.4746764255
Ti         9.3283224267        1.8086437623        4.7682266765
Ti         7.4641658251       -0.0615013412       -0.0797797688
Ti         3.7291131902        3.7834048213       -0.0067262480
Ti        13.2378846551       13.1244574633        4.7425052695
Ti        11.3743734190        5.7263566526        2.3768003124
Ti         5.6798203674       11.3253245263        7.1522626052
Ti        13.1724828908        3.6800835754        7.2403290938
Ti         3.7723493416       13.1620935127        2.4440239296
Ti         5.6803526851        5.7197734584        4.8434433372
Ti        11.2219413662       11.3902804566        0.1086163845
Ti        11.2849284942       13.3334562473        2.3541992069
Ti         5.6597747411        3.7269366252        7.1287236955
Ti         3.8838362420       11.4219225833        0.0419648664
Ti        13.2882631272        5.5836329897        4.9038123569
Ti         5.7980535986       13.2089947943        4.8103426216
Ti        11.2674628602        3.7898667756       -0.0769443238
Ti        13.0950601180       11.3814149959        7.2646416249
Ti         3.7911691213        5.6081685740        2.3939884993
Ti         3.7990949207        7.5571994723        0.0452538124
Ti        13.3042281034        9.4213077841        4.8373592340
Ti         7.5189922237        5.6775725322        2.3892711621
Ti         9.4267285716       11.1415055034        7.1725377929
Ti        13.3049213100        7.5417324618        7.2315531982
Ti         3.8824653613        9.4420911299        2.3388585101
Ti         9.5215093500        5.5612701333        4.7065079470
Ti         7.5324776989       11.3429813351        0.0710838519
Ti        11.4051706184        9.4479500297        2.4127559130
Ti         5.6604435739        7.6068660562        7.2013858973
Ti         5.7795868359        9.4227992698        4.7419386746
Ti        11.3209500654        7.5748792329        0.0058361991
Ti         9.4278960916        3.6451238096        7.1661954332
Ti         7.5400923026       13.3086007029        2.4058947368
Ti         7.4631953327        3.7978771005       -0.0638630850
Ti         9.5127927755       13.2421247005        4.7816479768
Ti         7.5982979148        7.5330652121       -0.0562049986
Ti         9.5314721348        9.3933086570        4.7597347473
Ti         7.6379741651        9.4165043994        2.3229534345
Ti         9.5159041193        7.3578181704        7.1444259058
O         0.0556953354        0.0832679273        2.0923737552
O         1.6651429374        1.9357353766        6.7386542080
O        -0.0702608469        2.0006094155        4.4153592778
O         1.7983083830        0.1491471455        9.2364928827
O         1.8073008190       -0.0170757203        5.2597949907
O        -0.1519822920        2.0050962142        0.4920708413
O         1.8670523565        2.1782677594        2.8322297598
O        -0.0699170509       -0.0503377207        7.6227423715
O        -0.0293022267        3.9090450632        2.0823003786
O         1.9953476893       13.2694857881        6.8247891643
O        11.2870655642        1.8271571663        4.3155903282
O         5.6314998440       -0.0213653128        9.2676471137
O         2.1133279078        3.7579042701        5.1786284773
O         0.0541356683       13.3678619292        0.4360511794
O         5.6316640955        1.8507423641        2.8362584439
O        11.2857961482        0.0680876786        7.5620486767
O         3.7119363302        0.1194550117        7.6898911304
O        13.1896778757        1.8718677009        2.8301469889
O        13.1744303735       -0.1077462696        9.2177760758
O         3.7111015450        1.6471276217        4.3786495978
O         1.9082734304        5.6232836854        6.7422443281
O         0.0600644018       11.4560881555        1.9209840654
O         0.0843999969        5.7231330117        0.4648235513
O         1.9156092914       11.3171240574        5.2346418526
O         0.1223873034        7.7213294906        1.9542261032
O         2.1620875781        9.4637663029        6.7785581212
O         7.4570849387        1.8622967685        4.3603173604
O         9.4159319199        0.0372631830        9.2009934912
O         1.8217113052        7.5679193599        5.2741674573
O         0.1124551878        9.5671051120        0.2731714188
O         9.3698549339        2.0419704766        2.8403508944
O         7.4839630477       -0.1607928688        7.6990993423
O         3.7497440841        0.0571175259        2.0374447905
O        13.2180846066        1.8492154832        6.7829462464
O         0.0052997960        5.6055343237        4.4890521988
O         1.9283658573       11.3545281858        9.2669961169
O        13.1715053028       -0.0305391646        5.1314998148
O         3.7069858088        1.9545150449        0.4337348443
O         1.9457601406        5.8047046702        2.9110835591
O         0.0961760756       11.4259109609        7.5669507186
O        11.3477497228        2.0059956003        0.2861818063
O         5.8160535196       -0.0854841739        5.2754045617
O         5.5641471859        1.8280834897        6.7852960538
O        11.2694490245        0.1387834055        1.8951558253
O         1.9062361748        3.8353753973        9.2053830026
O        -0.0187294207       13.1536800374        4.4557657746
O         0.0224798174        3.8020838181        7.6768549900
O         1.8856097201       13.2361013639        2.8666060112
O         3.9681418152        3.8369109516        2.0691157920
O        13.1050504294       13.2706002183        6.7320729587
O        11.3726164837        5.6626061655        4.3865481022
O         5.6906862846       11.4720100209        9.2263754423
O        13.1777942356        3.8028315157        5.2188258913
O         3.6381930963       13.3095701394        0.5071954778
O         5.7382740942        5.9141389687        2.7382026338
O        11.3038781140       11.3382904035        7.6543305439
O        11.2508627535       13.2708308006        0.4093313461
O         5.4922334394        3.7202743982        5.1848116648
O         3.7883155691       11.3694050461        7.6793097446
O        13.2776554267        5.9256471615        2.8739279423
O         5.5157515889       13.1994689990        6.7823202835
O        11.5445076422        3.8319727660        1.9193947371
O        13.2335173815       11.4076174724        9.2098159958
O         3.8643450301        5.7141777046        4.4074288620
O         5.7625151606        5.6340431912        6.7346297470
O        11.1215355425       11.4586110959        2.0021718150
O        13.2081660902        3.9110424412        9.1362226900
O         3.7982711092       13.2149181426        4.3903719046
O        11.3587853706        5.7372201740        0.4103758270
O         5.7867093731       11.3033203311        5.2358396656
O         3.7458472100        3.7227795114        7.6478876601
O        13.2122693251       13.2142513587        2.7147298925
O        13.0514380488       11.4087224335        5.1526466748
O         3.7136550811        5.6751035224        0.4288193115
O         5.6956169404       13.1669996180        2.8679235651
O        11.2946629875        3.5629287382        7.5568186895
O         3.9639578606       11.4057551201        1.9663138095
O        13.2135745666        5.6415847521        6.9012031099
O        11.2885811635       13.3509029227        4.3229112352
O         5.6637422916        3.8118611453        9.1419103556
O         3.7867019179        7.6342842638        1.9265088261
O        13.3108421564        9.5851682257        6.7530051022
O         7.5734516074        5.5275412585        4.3209201909
O         9.4244151773       11.3241047920        9.2235587852
O        13.2632163374        7.5873170415        5.4196930448
O         3.8112306144        9.5219906136        0.3597770292
O         9.5539159757        5.5800446598        2.7888646977
O         7.5232711336       11.3484687578        7.5744889450
O        11.3459310914        9.4925159697        0.4077901456
O         5.7307582516        7.5681520762        5.1628008386
O         5.5461575106        9.4184396477        6.7580137947
O        11.2240631166        7.6053675179        2.0189748379
O         9.4344967443        3.9494975879        9.1481918853
O         7.5918558354       13.0436439129        4.4524402784
O         7.5046634454        3.6451492403        7.5499800410
O         9.4298763050       13.4697345822        2.8562836251
O         7.4428238070       -0.0373373575        2.0377288779
O         9.2131086939        1.8076668920        6.7283891799
O         0.0797330344        9.3691740511        4.4341728866
O         1.9274868097        7.5760953730        9.2018986497
O         9.3112537620       -0.0326929393        5.1937343439
O         7.6358145135        1.9044625575        0.4386414385
O         1.9640946679        9.6998984688        2.7723091801
O         0.0421548811        7.5681747385        7.6169031327
O         7.5247633623        3.7977709720        1.9494469613
O         9.5033038218       13.2077619040        6.7439555870
O        11.4426099532        9.2290594951        4.3781859619
O         5.6687784172        7.6986493958        9.1264446770
O         9.4814848580        3.6887199930        5.1823551436
O         7.5680375907       13.2196073822        0.4177452353
O         5.7398827532        9.4007940848        2.7112636321
O        11.3036676381        7.6447313926        7.5950276049
O         3.7906932286        7.3639569130        7.5997058737
O        13.3244605979        9.6165532338        2.8077015257
O        13.2645988793        7.6756347017        9.3276304290
O         3.8516949861        9.4263450885        4.2981403326
O         9.6102875653        5.5295005852        6.7551748768
O         7.6431962417       11.3272692730        1.9617983122
O         7.3425559059        5.6951880256        0.3698449251
O         9.5556157448       11.2284336522        5.1963739619
O         7.8619737565        7.5896119444        1.9246922580
O         9.4485070544        9.4156417365        6.8106765555
O         7.5604901099        9.3777505874        4.3262544622
O         9.4709360952        7.4384307630        9.2198260715
O         9.3537953377        7.4828562853        5.2461342690
O         7.5173022533        9.4667705799        0.3622294932
O         9.5712012937        9.5103341950        2.8705594869
O         7.5969678278        7.5408280386        7.5877679828
     192
 i =        2, E =     -5783.3347889162
Ti        -0.0592632750        0.1153280583        0.0329418863
Ti         1.8564067616        1.9284882498        4.8829227156
Ti         0.0409769757        2.0111401607        2.4893694967
Ti         1.8458508978       -0.0662190776        7.1910663072
Ti        -0.0575448400        3.8301696549       -0.0342926126
Ti         1.9531732261       13.2065979897        4.8395576512
Ti        11.3007141618        1.9582918622        2.4342867527
Ti         5.6004594068       -0.0750501626        7.2138842044
Ti         1.9052688037        3.8053657396        7.2469945193
Ti         0.0083865679       13.3339906484        2.4601528632
Ti         5.6807358886        1.8517988289        4.8128414256
Ti        11.2925957589        0.0934271953       -0.0332452178
Ti         3.6599440433        0.0818128396        0.0342211283
Ti        13.1640014164        1.7915494697        4.7345509429
Ti        13.2656349219       -0.0404533461        7.1774852508
Ti         3.7637119034        1.8314481105        2.5088173910
Ti         1.9637059498        5.6578141831        4.8326067068
Ti        -0.0008816018       11.5542860412       -0.0016319092
Ti        -0.0159688329        5.7107227978        2.4788861273
Ti         1.8781044018       11.3442743554        7.3315387716
Ti         0.0362632982        7.4979598769        0.0336878189
Ti         2.0230445358        9.5198429417        4.8642015638
Ti         7.5007842062        1.9552585015        2.3322319679
Ti         9.4833166364       -0.1126312962        7.2270184483
Ti         1.9385924030        7.5718193636        7.1747583907
Ti         0.1050886330        9.5525966340        2.4843718436
Ti         9.3504303039        1.8211615068        4.7910388366
Ti         7.4668694640       -0.0336116132       -0.0655677878
Ti         3.7394511524        3.7709886879        0.0027089210
Ti        13.2325564640       13.1160991467        4.7776871761
Ti        11.3605033298        5.7141123548        2.3859035472
Ti         5.6737218538       11.3188364851        7.1734093541
Ti        13.1642880839        3.7049387661        7.2315587883
Ti         3.7819102550       13.1929413655        2.4439854664
Ti         5.6983713909        5.6986233550        4.8357975023
Ti        11.2237586551       11.3870580271        0.0821916905
Ti        11.3050522121       13.3129809159        2.3470611768
Ti         5.6663320978        3.7261553073        7.1409537246
Ti         3.8680741183       11.3956473119        0.0220875873
Ti        13.2764958577        5.5920802928        4.8727386464
Ti         5.7720724699       13.2043639095        4.8058990067
Ti        11.2613908667        3.7977160553       -0.0444073380
Ti        13.1238591671       11.3530117438        7.2625059305
Ti         3.8023787904        5.6308732301        2.3929572034
Ti         3.7916475335        7.5814383481        0.0324280849
Ti        13.2868250171        9.4304242746        4.8398292622
Ti         7.4929234519        5.6846689095        2.4120011624
Ti         9.4101566040       11.1770383179        7.1696178406
Ti        13.2978957984        7.5276748756        7.1960622584
Ti         3.8575808539        9.4337649469        2.3518644207
Ti         9.5192841337        5.5732500375        4.7251914742
Ti         7.5657162632       11.3536303095        0.0440224569
Ti        11.3962290077        9.4535221014        2.4349202835
Ti         5.6640168900        7.5823138309        7.2242943290
Ti         5.7699883328        9.4206846235        4.7574984326
Ti        11.3290869820        7.5861029604       -0.0002589986
Ti         9.4364922668        3.6635356273        7.1746240935
Ti         7.5408130661       13.3256618011        2.3894555273
Ti         7.4745718470        3.7975791772       -0.0585034447
Ti         9.4976553139       13.2362878852        4.7875145724
Ti         7.6105198958        7.5324423848       -0.0631959326
Ti         9.5284271062        9.4210708956        4.7774511172
Ti         7.6131750958        9.4154145600        2.3301696874
Ti         9.5181126138        7.3888309296        7.1523083828
O         0.0565983399        0.0645769321        2.0292680529
O         1.7565971155        1.9169497930        6.7675541936
O        -0.0220395794        1.9787784846        4.3936347117
O         1.7970754518        0.1255593536        9.2114251699
O         1.8143808810       -0.0109863218        5.2652690234
O        -0.1186411553        2.0078176561        0.4508100006
O         1.8688145501        2.0944622985        2.8093084095
O        -0.0519409518       -0.0549092117        7.6395084016
O        -0.0613526168        3.8915826229        2.0708176361
O         1.9876272963       13.2437263652        6.8356735142
O        11.2939137274        1.8437063727        4.3437532226
O         5.6037131042        0.0175293408        9.2507473369
O         2.0676697850        3.7793454687        5.1919131666
O         0.0478894886       13.3704587059        0.4305783867
O         5.6342328264        1.9185133810        2.8196549453
O        11.3100388460        0.0769773539        7.5698677318
O         3.7019009667        0.0861154539        7.6669985601
O        13.1905815849        1.8964416321        2.8359444974
O        13.1860684973       -0.0315790539        9.1888346740
O         3.7212635586        1.6748280577        4.3994050399
O         1.8712002400        5.6374022218        6.7710490596
O         0.0230152908       11.4291629035        1.9188002982
O         0.0377718663        5.7113285340        0.4582832643
O         1.8940108115       11.3354582401        5.2399200400
O         0.1263725412        7.6960226779        1.9438941287
O         2.0549210253        9.4674640972        6.7946340832
O         7.4969977796        1.9139395704        4.3813076425
O         9.4184402449        0.0162468599        9.1742678038
O         1.8934159638        7.5667022000        5.2671870925
O         0.0848694409        9.5413286822        0.2726676256
O         9.3823178817        1.9841442057        2.8188203855
O         7.4780750762       -0.1327264921        7.6698413939
O         3.7347579750        0.0622946174        2.0334220457
O        13.2722461736        1.8663478857        6.7904913146
O         0.0127952098        5.5947824302        4.4651265478
O         1.8921596644       11.3510005810        9.2493677670
O        13.2302437441       -0.0054039769        5.1697028291
O         3.7141527601        1.9343289303        0.4419623037
O         1.9421646632        5.7527615161        2.8671615706
O         0.0454715002       11.4318532278        7.5947927220
O        11.3232990799        1.9828856899        0.3115781069
O         5.7890663630       -0.0566532340        5.2543111149
O         5.6314848322        1.8255814120        6.7821365173
O        11.2982070967        0.1288185712        1.9197402194
O         1.8851320572        3.8177189023        9.2368598631
O        -0.0102210805       13.2062463545        4.4149582405
O         0.0012489184        3.7839352130        7.6752363697
O         1.8819984623       13.2387213514        2.8624034808
O         3.9012505276        3.8472458183        2.0591790219
O        13.1562189352       13.2348408831        6.7831464311
O        11.3677277225        5.6669758121        4.4056675039
O         5.6980579349       11.4577226410        9.2270931772
O        13.1570022356        3.8036945148        5.2205216936
O         3.6480551363       13.2940752564        0.4738126162
O         5.7097756596        5.8745838403        2.7641948437
O        11.3191301076       11.3347632307        7.6136027951
O        11.2735212776       13.2735713825        0.3868289047
O         5.5839283256        3.7221820912        5.1852976411
O         3.7906301496       11.3760727844        7.6648956744
O        13.2869776132        5.9044294831        2.8666698608
O         5.5203250586       13.2043223659        6.8101849538
O        11.4796677594        3.8067188842        1.9620992216
O        13.2536853222       11.4312019155        9.2007646026
O         3.8550890487        5.7221818482        4.3999324272
O         5.7535074317        5.6325530506        6.7371558432
O        11.2125308212       11.4099396769        2.0081165927
O        13.2059823427        3.8920477724        9.1493419377
O         3.7841444110       13.2326404278        4.4168954581
O        11.4037067081        5.7426388658        0.4062540206
O         5.7413084134       11.2897375941        5.2461946064
O         3.7569305266        3.7231636209        7.6556461856
O        13.2312519397       13.2665689128        2.7734913176
O        13.0850269661       11.3462915230        5.1582107371
O         3.7412505924        5.6804749118        0.4220207133
O         5.6936255117       13.2322207076        2.8530015519
O        11.3024255098        3.5800035534        7.5775118769
O         3.9233080778       11.3990740070        1.9876323226
O        13.2206699947        5.6546992973        6.8392725627
O        11.3061436233       13.3117352589        4.3424751499
O         5.6583101083        3.7839894206        9.1604865513
O         3.7556770796        7.6097683467        1.9434107561
O        13.3116507252        9.5425385636        6.7828043247
O         7.5838806367        5.5183876997        4.3336801612
O         9.4331888389       11.3108633575        9.1751198552
O        13.2965097608        7.5750602505        5.3408553543
O         3.7968548397        9.5083846500        0.3772851757
O         9.5058799257        5.5779716777        2.7943854721
O         7.5186574749       11.3227148324        7.5635897033
O        11.3617087450        9.4838971403        0.4670951702
O         5.7458971468        7.5509404089        5.1775757663
O         5.5958416034        9.4041406096        6.7717398511
O        11.2983930487        7.6166832253        2.0026364319
O         9.4155530413        3.9316535780        9.1511855955
O         7.5735579944       13.0856737002        4.4093804015
O         7.5210608315        3.6928774141        7.5723343706
O         9.4261652496       13.3796566470        2.8215400942
O         7.4801768575        0.0039719716        2.0360603048
O         9.2804388123        1.8227307553        6.7615736857
O         0.0533027346        9.4340623666        4.4184913637
O         1.9085355004        7.6614166340        9.2138419555
O         9.3530780481       -0.0235882484        5.2032701026
O         7.5653234622        1.9136394901        0.4079874852
O         1.9364707053        9.6369265325        2.7655780504
O         0.0326895477        7.5858848618        7.6154019481
O         7.4788950546        3.8187691151        1.9480735293
O         9.4850971979       13.2150134366        6.7620277100
O        11.4127932381        9.2464055815        4.4044545694
O         5.6726461482        7.6533971177        9.1566862397
O         9.4564534852        3.7122643981        5.1934505910
O         7.5873721882       13.2534653378        0.4281017869
O         5.7303953024        9.4103405354        2.7489532365
O        11.3384287330        7.6276178213        7.6351779981
O         3.7832411604        7.3917992057        7.5969104925
O        13.2911438935        9.6028030829        2.8090201836
O        13.2654885018        7.6620607485        9.2338979042
O         3.8430060104        9.3933518055        4.3212510729
O         9.5416415416        5.5643800934        6.7655099071
O         7.6658714203       11.3304029788        1.9580026817
O         7.4118252717        5.6903767715        0.4008340513
O         9.5575062825       11.2543341758        5.2067003651
O         7.7926061503        7.5594735885        1.9445813665
O         9.4638078738        9.4092345600        6.8372227199
O         7.5816961743        9.3886837040        4.3448529481
O         9.4704196731        7.4959485231        9.1827137749
O         9.4006823935        7.4928459529        5.2302189284
O         7.5315259795        9.4538671274        0.3645015362
O         9.5277381529        9.5100856530        2.8639005550
O         7.5888290615        7.5162698782        7.5925580991
     192
 i =        3, E =     -5783.3716326837
Ti        -0.0488805379        0.1158418450        0.0177919166
Ti         1.8637664100        1.9212125660        4.8718313355
Ti         0.0366486751        2.0068470917        2.4707811368
Ti         1.8509163190       -0.0543006247        7.2006228178
Ti        -0.0671149196        3.8194817686       -0.0303000686
Ti         1.9502912819       13.2227068499        4.8285972557
Ti        11.3232787860        1.9449674451        2.4326092060
Ti         5.6057315223       -0.0525939807        7.2112666159
Ti         1.9010267205        3.7950387844        7.2474782095
Ti         0.0050043558       13.3339584327        2.4453467655
Ti         5.6862287409        1.8596803959        4.8139862483
Ti        11.2856731055        0.0822536120       -0.0278785897
Ti         3.6693330875        0.0798704474        0.0271900932
Ti        13.1819018476        1.8128902817        4.7651267733
Ti        13.2502713926       -0.0294592087        7.1963695633
Ti         3.7720657617        1.8402082617        2.4845893430
Ti         1.9586684449        5.6670763294        4.8266041724
Ti        -0.0146813550       11.5421207440       -0.0099341415
Ti        -0.0098185348        5.7012162080        2.4710920389
Ti         1.8642302972       11.3523159185        7.2992858586
Ti         0.0162134810        7.5063752110        0.0099121765
Ti         2.0031013292        9.5192529035        4.8468707722
Ti         7.5159621571        1.9468830813        2.3336626722
Ti         9.4713365450       -0.0939086697        7.2184770782
Ti         1.9262072283        7.5672197029        7.1765716874
Ti         0.0853478679        9.5297386977        2.4850200216
Ti         9.3656194315        1.8367959436        4.7876360924
Ti         7.4666215116       -0.0095039211       -0.0566022267
Ti         3.7448606474        3.7753482648        0.0116366426
Ti        13.2349710128       13.1400949842        4.7819309694
Ti        11.3630363660        5.7079363710        2.3923060288
Ti         5.6688051499       11.3189702045        7.1894203119
Ti        13.1765496871        3.7204110632        7.2193038138
Ti         3.7794430959       13.2169735784        2.4229986466
Ti         5.7000434655        5.6814896188        4.8399576334
Ti        11.2394266745       11.3878298820        0.0562472962
Ti        11.3232475018       13.2981042943        2.3662959230
Ti         5.6654074051        3.7324925906        7.1573768915
Ti         3.8464576850       11.3894658977        0.0195699341
Ti        13.2713241268        5.5959740407        4.8510685763
Ti         5.7488440633       13.2038494499        4.7967119927
Ti        11.2675835002        3.7964664387       -0.0211296253
Ti        13.1620582206       11.3302402060        7.2721899603
Ti         3.7937578969        5.6307309937        2.3910639210
Ti         3.7797852290        7.5932452214        0.0155371151
Ti        13.2832005698        9.4372472193        4.8388719593
Ti         7.4984641937        5.6905860157        2.4070078544
Ti         9.4170735858       11.2080563043        7.1638804489
Ti        13.2968764897        7.5236533592        7.1830545051
Ti         3.8384166243        9.4325845434        2.3764229123
Ti         9.5018792381        5.5849254250        4.7429500935
Ti         7.5713294064       11.3481005131        0.0273148041
Ti        11.4027774912        9.4549132951        2.4262711087
Ti         5.6717775625        7.5620492136        7.2347096135
Ti         5.7583405887        9.4152644303        4.7760695392
Ti        11.3507423079        7.5910358607       -0.0136958374
Ti         9.4331685525        3.6856349630        7.1831550119
Ti         7.5473783597       13.3311173430        2.3798761051
Ti         7.4823287358        3.8047788777       -0.0495042103
Ti         9.4899017287       13.2303493130        4.7897196828
Ti         7.6116236964        7.5348587149       -0.0621548654
Ti         9.5191320753        9.4296598774        4.7749209086
Ti         7.6084812424        9.4333121642        2.3492061252
Ti         9.5118297327        7.4293579968        7.1622338420
O         0.0463454208        0.0758280685        2.0021216262
O         1.8005397500        1.9143237473        6.7808347290
O         0.0056320888        1.9513354128        4.3966661174
O         1.8152817628        0.1244750278        9.2069880697
O         1.8073063737       -0.0137957530        5.2630519330
O        -0.1095727846        1.9926383290        0.4399911662
O         1.8712999441        2.0289375447        2.7981255773
O        -0.0384680278       -0.0618140485        7.6313616738
O        -0.0898035965        3.8770673923        2.0486895965
O         1.9647900476       13.2317812165        6.8364035029
O        11.2925274394        1.8517650775        4.3719873262
O         5.5907421250        0.0144406401        9.2383804134
O         2.0372713623        3.7846439349        5.2095070230
O         0.0393964642       13.3557330583        0.4199039730
O         5.6447488205        1.9508388369        2.8146904287
O        11.3069631910        0.0599409889        7.5752999615
O         3.7125813265        0.0421922966        7.6613883203
O        13.2041357961        1.8903948381        2.8453229679
O        13.1914652949        0.0279821908        9.1809116842
O         3.7480760744        1.7235599084        4.4051448169
O         1.8571875410        5.6503671517        6.7986661750
O        -0.0166513053       11.4086118562        1.9256643297