     192
 i =        1, E =     -5768.8799408850
Ti         0.0006232813        0.0006228454       -0.0000021711
Ti        -0.0010587046       -0.0010656145       -0.0000068877
Ti         0.0006306327       -0.0010789747       -0.0006380908
Ti        -0.0010820039        0.0006248495        0.0006402638
Ti         0.0006348641       -0.0015203782        0.0003205175
Ti        -0.0010830191       -0.0006887132       -0.0006453101
Ti         0.0010362124       -0.0010594530        0.0000001564
Ti        -0.0004254374        0.0006315610        0.0004461806
Ti        -0.0010269153       -0.0015180199        0.0003261523
Ti         0.0006259343       -0.0006969780        0.0000049449
Ti        -0.0004337618       -0.0010174383        0.0001893021
Ti         0.0010584821        0.0006295311       -0.0006478766
Ti        -0.0015235946        0.0006302410       -0.0003233006
Ti        -0.0006879018       -0.0010798386        0.0006412360
Ti        -0.0006903455        0.0006282032        0.0000056846
Ti        -0.0015155926       -0.0010298487       -0.0003062453
Ti        -0.0010189631       -0.0004167133       -0.0002054461
Ti         0.0006341698        0.0010567871        0.0006531373
Ti         0.0006426854       -0.0004290952       -0.0004424212
Ti        -0.0010544940        0.0010358661        0.0000024233
Ti         0.0006477070        0.0004899632        0.0004497785
Ti        -0.0010354367        0.0015235977       -0.0003216908
Ti         0.0004923045       -0.0010157053       -0.0001904037
Ti         0.0015436023        0.0006274816        0.0003202743
Ti        -0.0010068872        0.0005006981        0.0001957945
Ti         0.0006344993        0.0015502019       -0.0003115620
Ti         0.0015300126       -0.0010380077        0.0003130062
Ti         0.0004913782        0.0006356724       -0.0004490021
Ti        -0.0014963285       -0.0014923019       -0.0000062574
Ti        -0.0006811232       -0.0006900101       -0.0000060758
Ti         0.0009857486       -0.0004300667        0.0002013366
Ti        -0.0004334461        0.0009823824       -0.0001918386
Ti        -0.0006966005       -0.0015259540       -0.0003183587
Ti        -0.0015254899       -0.0006945837        0.0003280896
Ti        -0.0004300109       -0.0004313782       -0.0000017028
Ti         0.0010302446        0.0010317724       -0.0000031203
Ti         0.0010566954       -0.0006908694        0.0006471300
Ti        -0.0004413461       -0.0014834019        0.0001177940
Ti        -0.0015195056        0.0010086923        0.0003102139
Ti        -0.0006938548       -0.0004209424        0.0004461427
Ti        -0.0004343563       -0.0006878336       -0.0004501944
Ti         0.0010131170       -0.0015207225       -0.0003166643
Ti        -0.0006982623        0.0010528830       -0.0006463369
Ti        -0.0014899480       -0.0004268415       -0.0001149731
Ti        -0.0014901320        0.0004895095        0.0001080953
Ti        -0.0006953639        0.0015362733        0.0003155940
Ti         0.0004976273       -0.0004359745        0.0000026528
Ti         0.0015378679        0.0010004205       -0.0003106027
Ti        -0.0006987456        0.0004955585       -0.0004604146
Ti        -0.0015141493        0.0015083391        0.0000042829
Ti         0.0015035354       -0.0004175373        0.0000989901
Ti         0.0004968156        0.0009843529        0.0001859227
Ti         0.0010065652        0.0015306532        0.0003237784
Ti        -0.0004401950        0.0005024035       -0.0000012833
Ti        -0.0004503402        0.0014941114       -0.0000928138
Ti         0.0009800354        0.0005037384       -0.0001937143
Ti         0.0015204377       -0.0015061123        0.0000007803
Ti         0.0004903237       -0.0006833647        0.0004513586
Ti         0.0004850110       -0.0014833946       -0.0001056666
Ti         0.0015455242       -0.0006832789       -0.0003206821
Ti         0.0004982650        0.0004981994        0.0000008099
Ti         0.0015378085        0.0014980998        0.0000068359
Ti         0.0005103778        0.0014917260        0.0000989139
Ti         0.0015052317        0.0005155747       -0.0001179251
O        -0.0001607875        0.0001235188       -0.0016712492
O         0.0008521271        0.0003824671       -0.0016364975
O         0.0001442260        0.0009081869       -0.0013802555
O         0.0004149751       -0.0001519472       -0.0018965704
O         0.0009092768        0.0001415803        0.0013896739
O        -0.0001537574        0.0004197386        0.0018970896
O         0.0003957707        0.0008461688        0.0016352642
O         0.0001205236       -0.0001603752        0.0016707429
O        -0.0001698017       -0.0005533284       -0.0016774414
O         0.0009068840       -0.0001501239       -0.0013858533
O        -0.0004137077        0.0008562240       -0.0016327526
O        -0.0001028142       -0.0001628180       -0.0018017229
O         0.0007700032       -0.0005491049        0.0014102586
O        -0.0001636751       -0.0001363956        0.0016741526
O        -0.0001026012        0.0007451356        0.0015433359
O        -0.0004379971       -0.0001569175        0.0018993880
O        -0.0005482500       -0.0001575030        0.0016737274
O        -0.0001482201        0.0009078643        0.0013813660
O        -0.0001315464       -0.0001583567       -0.0016730186
O        -0.0005550993        0.0007727348       -0.0014151874
O         0.0007317495       -0.0001028590       -0.0015425959
O        -0.0001572515       -0.0004331874       -0.0019022652
O        -0.0001704345       -0.0001029409        0.0017993903
O         0.0008572483       -0.0004142627        0.0016368423
O        -0.0001674809        0.0001143563       -0.0017974162
O         0.0007627534        0.0005464005       -0.0014165576
O         0.0001165111        0.0007441121       -0.0015425588
O         0.0005416561       -0.0001631691       -0.0016728629
O         0.0007496186        0.0001153989        0.0015519693
O        -0.0001720953        0.0005393759        0.0016680075
O         0.0005428503        0.0007753471        0.0014104490
O         0.0001151488       -0.0001510202        0.0018018729
O        -0.0004032668        0.0001579203       -0.0013078939
O         0.0002114599        0.0004228344       -0.0019065115
O         0.0001661663       -0.0007273943       -0.0013051359
O         0.0003983809       -0.0008709104       -0.0016424352
O         0.0002033156        0.0001330361        0.0016774045
O        -0.0004056220        0.0003613383        0.0015649222
O         0.0003416366       -0.0007360096        0.0015464609
O         0.0001435525       -0.0009166865        0.0013832851
O        -0.0008759376        0.0003924974        0.0016436996
O        -0.0007300067        0.0001684900        0.0013124353
O        -0.0007297172        0.0003437830       -0.0015490993
O        -0.0009172439        0.0001421752       -0.0013930312
O         0.0003638210       -0.0004086356       -0.0015610210
O         0.0001305479        0.0002100887       -0.0016783241
O         0.0001574790       -0.0003940970        0.0012993354
O         0.0004223606        0.0002136567        0.0019034802
O        -0.0004400204       -0.0005524572       -0.0013381368
O         0.0002198860       -0.0001347187       -0.0016698661
O        -0.0003603231       -0.0007317746       -0.0015398345
O        -0.0001077336       -0.0007538785       -0.0015391930
O         0.0001941612       -0.0005512239        0.0016827936
O        -0.0003917719       -0.0001628244        0.0013062981
O        -0.0001172276       -0.0007590987        0.0013477539
O        -0.0004143426       -0.0008687570        0.0016414965
O        -0.0009185786       -0.0001506726        0.0013899559
O        -0.0007482060       -0.0005744165        0.0012710373
O        -0.0005535554       -0.0007770216        0.0014206883
O        -0.0001730882       -0.0007319339        0.0013006740
O        -0.0007272613       -0.0001778127       -0.0013095363
O        -0.0007766524       -0.0005558035       -0.0014175459
O        -0.0001489658       -0.0009191426       -0.0013833509
O        -0.0005751588       -0.0007504312       -0.0012586490
O        -0.0007604282       -0.0001222401       -0.0013491702
O        -0.0008679993       -0.0004157383       -0.0016427088
O        -0.0001634880       -0.0003927537       -0.0013043907
O        -0.0005522448        0.0001932444       -0.0016792126
O        -0.0007520998       -0.0001002331        0.0015391915
O        -0.0007286622       -0.0003639316        0.0015357844
O        -0.0005560542       -0.0004417354        0.0013340696
O        -0.0001347404        0.0002222386        0.0016716994
O         0.0001972123       -0.0004448565        0.0019004736
O        -0.0004510814       -0.0001082044        0.0014597834
O        -0.0000989219        0.0001924409        0.0018047891
O        -0.0003792718       -0.0003982721        0.0015589433
O        -0.0003965350       -0.0003861321       -0.0015598736
O         0.0002052561       -0.0001039283       -0.0018004197
O        -0.0004372709        0.0001964427       -0.0018976732
O        -0.0001074291       -0.0004523488       -0.0014581007
O        -0.0004444976        0.0001216721       -0.0014606729
O         0.0002083049        0.0005422508       -0.0016759560
O         0.0001304608       -0.0007568822       -0.0013436341
O         0.0005424398       -0.0007756664       -0.0014169476
O         0.0001978461        0.0001136813        0.0018061345
O        -0.0004396093        0.0005455543        0.0013343398
O         0.0005632387       -0.0007537347        0.0012621158
O         0.0001188033       -0.0007457277        0.0015379094
O        -0.0007750651        0.0005431735        0.0014247584
O        -0.0007602982        0.0001290390        0.0013401630
O        -0.0007437165        0.0005685269       -0.0012608990
O        -0.0007501862        0.0001178601       -0.0015488259
O         0.0005477112       -0.0004434444       -0.0013230211
O         0.0001149806        0.0001858872       -0.0018038305
O         0.0001172146       -0.0004478454        0.0014451245
O         0.0005346657        0.0001938774        0.0016755486
O         0.0007822236        0.0001668289       -0.0013158136
O         0.0003348099        0.0003516443       -0.0015654956
O         0.0001604743        0.0003377943       -0.0013050014
O         0.0003465971        0.0007799400       -0.0015500104
O         0.0003306195        0.0001599793        0.0013151662
O         0.0007836308        0.0003441191        0.0015486143
O         0.0003611781        0.0003368536        0.0015714714
O         0.0001695011        0.0007812828        0.0013023661
O         0.0008055847       -0.0005802662       -0.0012652216
O         0.0003246506       -0.0001694335       -0.0013100108
O        -0.0003739281        0.0003470123       -0.0015755405
O        -0.0001197122        0.0008135224       -0.0013457248
O         0.0003829959       -0.0005534819        0.0013317380
O         0.0007810265       -0.0001675514        0.0013074682
O        -0.0001054817        0.0003986880        0.0014484519
O        -0.0003652457        0.0007795063        0.0015470829
O        -0.0005778874        0.0008062718        0.0012701096
O        -0.0001742335        0.0003266575        0.0013059160
O        -0.0001729631        0.0007785876       -0.0013006595
O        -0.0005636839        0.0003850988       -0.0013427534
O         0.0003890765       -0.0001045701       -0.0014530367
O         0.0007801198       -0.0003598721       -0.0015314502
O         0.0008145566       -0.0001176191        0.0013437229
O         0.0003255890       -0.0003877974        0.0015583832
O         0.0008163893        0.0001314393       -0.0013456371
O         0.0003740158        0.0005475424       -0.0013473936
O         0.0001219868        0.0004088223       -0.0014454052
O         0.0005674068        0.0007953027       -0.0012698416
O         0.0003705580        0.0001217536        0.0014702339
O         0.0007959249        0.0005623770        0.0012610509
O         0.0005528912        0.0003802449        0.0013425828
O         0.0001336508        0.0008137953        0.0013460398
     192
 i =        2, E =     -5768.8820169195
Ti         0.0000858869        0.0000910776        0.0000003956
Ti         0.0002418766        0.0002340609       -0.0000014899
Ti         0.0000775410        0.0002851969        0.0006214995
Ti         0.0002804741        0.0000797290       -0.0006386663
Ti         0.0000685561       -0.0006517204        0.0002663078
Ti         0.0002860757       -0.0000405757        0.0006136021
Ti        -0.0002794710        0.0002474922       -0.0000288734
Ti        -0.0009870512        0.0000646297       -0.0001739580
Ti         0.0002058907       -0.0006734919       -0.0008643697
Ti         0.0000887906       -0.0000587196        0.0000069459
Ti        -0.0009853213        0.0001746328       -0.0004424247
Ti        -0.0003169120        0.0000789701        0.0006522859
Ti        -0.0006503426        0.0000722349       -0.0002542764
Ti        -0.0000431987        0.0002839926       -0.0006122599
Ti        -0.0000527988        0.0000976126       -0.0000069726
Ti        -0.0006793341        0.0002042938        0.0008720616
Ti         0.0001694054       -0.0009799660        0.0004529079
Ti         0.0000738085       -0.0003149786       -0.0006362822
Ti         0.0000601075       -0.0009917377        0.0001709075
Ti         0.0002491443       -0.0002792931        0.0000140466
Ti         0.0000617219        0.0010408360       -0.0001642382
Ti         0.0002094863        0.0006179846        0.0008634044
Ti         0.0010474966        0.0001782721        0.0004540383
Ti         0.0005923177        0.0000744939        0.0002519397
Ti         0.0001745357        0.0010420421       -0.0004573567
Ti         0.0000704757        0.0005988607       -0.0002528447
Ti         0.0006174456        0.0002046807       -0.0008643012
Ti         0.0010447749        0.0000661533        0.0001694369
Ti        -0.0006944294       -0.0006906684        0.0000029036
Ti        -0.0000544414       -0.0000602858       -0.0000075459
Ti        -0.0002058345       -0.0009863489       -0.0004751793
Ti        -0.0009796912       -0.0002126930        0.0004640632
Ti        -0.0000455356       -0.0006509548       -0.0002674551
Ti        -0.0006533185       -0.0000442127        0.0002727771
Ti        -0.0009843554       -0.0009939664        0.0000076015
Ti        -0.0002778952       -0.0002742769        0.0000090794
Ti        -0.0003131194       -0.0000487640       -0.0006410152
Ti        -0.0009853449       -0.0007217794       -0.0003748212
Ti        -0.0006695204       -0.0002399950       -0.0008921830
Ti        -0.0000351613       -0.0009853208       -0.0001638546
Ti        -0.0009844216       -0.0000473785        0.0001671107
Ti        -0.0002379904       -0.0006740580        0.0008952244
Ti        -0.0000464954       -0.0003193034        0.0006337903
Ti        -0.0007229157       -0.0009844549        0.0003623529
Ti        -0.0007164085        0.0010402034       -0.0003728361
Ti        -0.0000487735        0.0005963948        0.0002590142
Ti         0.0010562393       -0.0009956220        0.0000078615
Ti         0.0006058809       -0.0002430566        0.0008806417
Ti        -0.0000344871        0.0010403987        0.0001532499
Ti        -0.0006927543        0.0006413715        0.0000045357
Ti         0.0006622040       -0.0009784416       -0.0003722018
Ti         0.0010400887       -0.0002091933       -0.0004805212
Ti        -0.0002366107        0.0006185436       -0.0008765316
Ti        -0.0009887366        0.0010557594       -0.0000000864
Ti        -0.0009809078        0.0006790023        0.0003853725
Ti        -0.0002082598        0.0010372311        0.0004805102
Ti         0.0006407585       -0.0006912945       -0.0000017956
Ti         0.0010427763       -0.0000415819       -0.0001531591
Ti         0.0010432674       -0.0007219380        0.0003805409
Ti         0.0005858798       -0.0000472748       -0.0002625930
Ti         0.0010491593        0.0010526737       -0.0000034273
Ti         0.0006339609        0.0006390520        0.0000095770
Ti         0.0010406200        0.0006717328       -0.0003646075
Ti         0.0006593283        0.0010433602        0.0003604620
O         0.0002161783        0.0006226757       -0.0001633291
O        -0.0007060328       -0.0003933472        0.0000749520
O         0.0005904259       -0.0007579083        0.0001145925
O        -0.0003997367        0.0002111385       -0.0001912875
O        -0.0007578951        0.0005835626       -0.0001065691
O         0.0002172895       -0.0003959629        0.0001907496
O        -0.0003872389       -0.0007000875       -0.0000730757
O         0.0006160606        0.0002153745        0.0001656560
O         0.0002303346        0.0004080203       -0.0008552743
O        -0.0007626382       -0.0005610697        0.0001276870
O         0.0003990683       -0.0007088179        0.0001124990
O         0.0000209247        0.0002069189       -0.0005061944
O        -0.0006216818        0.0003869397        0.0005540031
O         0.0002203991       -0.0006021910        0.0001504484
O         0.0000157352       -0.0006202580        0.0002065656
O         0.0004149050        0.0002161693        0.0001552664
O         0.0004135112        0.0002209599        0.0008565810
O        -0.0005626735       -0.0007634176       -0.0001255030
O        -0.0005962109        0.0002187357       -0.0001526123
O         0.0003862853       -0.0006244108       -0.0005639586
O        -0.0006136670        0.0000243972       -0.0001997929
O         0.0002207920        0.0004107896       -0.0001530206
O         0.0002181053        0.0000230047        0.0005012758
O        -0.0007078374        0.0004051820       -0.0001104044
O         0.0002160361       -0.0000280651       -0.0005137367
O        -0.0006233532       -0.0003988233       -0.0005529181
O        -0.0000228218       -0.0006204398       -0.0002247005
O        -0.0004240351        0.0002192145       -0.0008525140
O        -0.0006175498       -0.0000242304        0.0002263595
O         0.0002296554       -0.0004209799        0.0008420026
O        -0.0004058696       -0.0006300763        0.0005569903
O        -0.0000280490        0.0002019343        0.0005245182
O         0.0006272170        0.0005522889        0.0001297082
O        -0.0002636602       -0.0003923123       -0.0001954467
O         0.0005439021       -0.0005283787        0.0003510500
O        -0.0003841721        0.0007326701        0.0000686631
O        -0.0002650883        0.0006252624        0.0001673555
O         0.0006253273       -0.0003727189       -0.0000745372
O        -0.0003673420       -0.0005249985       -0.0002750935
O         0.0005900281        0.0007872952       -0.0001092075
O         0.0007362294       -0.0003878972       -0.0000654137
O        -0.0005214388        0.0005377974       -0.0003531235
O        -0.0005269260       -0.0003581669        0.0002714431
O         0.0007854319        0.0005892245        0.0001040701
O        -0.0003730712        0.0006222104        0.0000749633
O         0.0006146124       -0.0002703200       -0.0001699306
O         0.0005588871        0.0006236949       -0.0001327420
O        -0.0003936916       -0.0002675245        0.0001970455
O         0.0006535358        0.0003857744       -0.0005606123
O        -0.0002649828       -0.0006032157       -0.0001475078
O         0.0003669186       -0.0005300135        0.0003175860
O         0.0000181304        0.0006422605       -0.0002065533
O        -0.0002607389        0.0004105246        0.0008588252
O         0.0006205993       -0.0005285655       -0.0001434978
O         0.0000263786       -0.0005814854        0.0000275238
O         0.0003995884        0.0007338842       -0.0001052923
O         0.0007886214       -0.0005648619       -0.0001197194
O        -0.0005442284        0.0003724562        0.0003614697
O         0.0003880969        0.0006488850        0.0005703411
O        -0.0005196691       -0.0005223056       -0.0003663764
O        -0.0005262591       -0.0005134008        0.0003636873
O         0.0006537217        0.0003867899       -0.0005680167
O        -0.0005675725        0.0007896316        0.0001215713
O         0.0003656534       -0.0005453261       -0.0003565941
O        -0.0005725766        0.0000192654       -0.0000273761
O         0.0007370580        0.0004055398        0.0001010971
O        -0.0005330610        0.0006151568        0.0001391172
O         0.0004120107       -0.0002586306       -0.0008609885
O         0.0006397405        0.0000228213        0.0002060812
O        -0.0005237138        0.0003602871       -0.0003173121
O         0.0003739200        0.0006577410        0.0005610861
O        -0.0005944705       -0.0002708227        0.0001551111
O        -0.0002597535        0.0004106028        0.0001533354
O         0.0006409759        0.0000284612        0.0002355808
O         0.0000230367       -0.0002305311        0.0005083609
O         0.0003822681        0.0006171513       -0.0001137449
O         0.0006095582        0.0003824485        0.0001124642
O        -0.0002430323        0.0000258369       -0.0005020626
O         0.0004055876       -0.0002600495       -0.0001512256
O         0.0000240520        0.0006427200       -0.0002395248
O         0.0006430706       -0.0000361556       -0.0002494354
O        -0.0002635619       -0.0004269748       -0.0008460373
O        -0.0000253278       -0.0005784965       -0.0000437023
O        -0.0004049575        0.0006451899       -0.0005601311
O        -0.0002466378       -0.0000279769        0.0005224439
O         0.0006475651       -0.0003957741        0.0005522828
O        -0.0003824769       -0.0005355593        0.0003508438
O        -0.0000230034        0.0006373937        0.0002275430
O         0.0006446247       -0.0004068702        0.0005637213
O        -0.0005733844       -0.0000198785        0.0000327739
O        -0.0005430017       -0.0003819807       -0.0003492726
O         0.0006385953       -0.0000263478       -0.0002305094
O        -0.0003913682        0.0006516192       -0.0005457390
O        -0.0000283721       -0.0002276718       -0.0005261078
O        -0.0000332751        0.0006444591        0.0002400136
O        -0.0004262529       -0.0002523491        0.0008523172
O         0.0004553114        0.0005391087        0.0003475602
O        -0.0005774012       -0.0003673064        0.0000663230
O         0.0005520602       -0.0005755136        0.0001178796
O        -0.0003623266        0.0004612523        0.0002698040
O        -0.0005786096        0.0005443727       -0.0001168918
O         0.0004589265       -0.0003578390       -0.0002731810
O        -0.0003748064       -0.0005856749       -0.0000618712
O         0.0005453258        0.0004522544       -0.0003517856
O         0.0004615355        0.0003735909       -0.0003613684
O        -0.0005750976       -0.0005227617        0.0001283745
O         0.0003832487       -0.0005790268        0.0000937345
O         0.0000195591        0.0005011151       -0.0000342956
O        -0.0006111406        0.0003742446        0.0005612042
O         0.0004532830       -0.0005126459       -0.0003649682
O         0.0000257638       -0.0006104156        0.0002298586
O         0.0003692003        0.0004527243       -0.0003100657
O         0.0003696365        0.0004616244        0.0003669781
O        -0.0005270925       -0.0005801341       -0.0001295393
O        -0.0005177200        0.0004536099        0.0003651431
O         0.0003664915       -0.0006142582       -0.0005726307
O        -0.0005997388        0.0000320120       -0.0002321724
O         0.0004549155        0.0003619109        0.0003173813
O         0.0005020745        0.0000173977        0.0000270049
O        -0.0005658531        0.0003809992       -0.0001065332
O         0.0004923605       -0.0000204793       -0.0000421206
O        -0.0006002279       -0.0003960281       -0.0005661573
O        -0.0000314619       -0.0006068380       -0.0002468884
O        -0.0003853062        0.0004678125       -0.0003580081
O        -0.0005983430       -0.0000225184        0.0002595383
O         0.0004701007       -0.0003902092        0.0003471385
O        -0.0003797036       -0.0006233648        0.0005637648
O        -0.0000295038        0.0004876178        0.0000504994
     192
 i =        3, E =     -5768.8823708181
Ti         0.0001952312        0.0001964529       -0.0000017784
Ti        -0.0000087916       -0.0000039936        0.0000018185
Ti         0.0001927958       -0.0000130806        0.0000809405
Ti        -0.0000150736        0.0001943618       -0.0000855656
Ti         0.0001942939        0.0001756100        0.0003439441
Ti        -0.0000139277       -0.0001884746        0.0000749433
Ti         0.0000229662       -0.0000083983       -0.0000168437
Ti        -0.0002804498        0.0001919050        0.0005302598
Ti        -0.0000043477        0.0001875054       -0.0004252616
Ti         0.0001945409       -0.0001906101        0.0000077794
Ti        -0.0002844751        0.0000023151       -0.0005972218
Ti         0.0000295019        0.0001923086        0.0001023652
Ti         0.0001797871        0.0001914049       -0.0003405022
Ti        -0.0001889958       -0.0000143068       -0.0000723992
Ti        -0.0001888669        0.0001958992       -0.0000093864
Ti         0.0001843930       -0.0000026604        0.0004221922
Ti         0.0000028926       -0.0002903634        0.0006026627
Ti         0.0001913877        0.0000325714       -0.0001039106
Ti         0.0001935451       -0.0002789407       -0.0005279516
Ti        -0.0000127603        0.0000235362        0.0000154537
Ti         0.0001897268        0.0002494969        0.0005166746
Ti        -0.0000027285       -0.0001838877        0.0004025279
Ti         0.0002572131        0.0000025128        0.0005905411
Ti        -0.0001798426        0.0001920432        0.0003208885
Ti        -0.0000035322        0.0002517472       -0.0005884846
Ti         0.0001939062       -0.0001815782       -0.0003212636
Ti        -0.0001841331        0.0000004914       -0.0004021304
Ti         0.0002494993        0.0001896486       -0.0005174526
Ti         0.0001766919        0.0001790429        0.0000040719
Ti        -0.0001917772       -0.0001930905        0.0000010529
Ti         0.0000151065       -0.0002848149       -0.0006175795
Ti        -0.0002840997        0.0000144222        0.0006169645
Ti        -0.0001865571        0.0001775246       -0.0003535413
Ti         0.0001769117       -0.0001831305        0.0003502507
Ti        -0.0003275286       -0.0003328878       -0.0000005242
Ti         0.0000276640        0.0000297965        0.0000019054
Ti         0.0000331178       -0.0001871786       -0.0000926884
Ti        -0.0003057939        0.0001793993        0.0001758732
Ti         0.0001828502        0.0000178410       -0.0004391125
Ti        -0.0001855930       -0.0002815091        0.0005397679
Ti        -0.0002768750       -0.0001827781       -0.0005384722
Ti         0.0000150501        0.0001838121        0.0004395101
Ti        -0.0001834625        0.0000357771        0.0000914624
Ti         0.0001797059       -0.0003133824       -0.0001784409
Ti         0.0001818839        0.0002801032        0.0001662125
Ti        -0.0001857694       -0.0001752724        0.0003316203
Ti         0.0002940161       -0.0003310130       -0.0000089762
Ti        -0.0001852057        0.0000217805        0.0004185419
Ti        -0.0001820750        0.0002464407       -0.0005245368
Ti         0.0001830293       -0.0001793358        0.0000188696
Ti        -0.0001794108       -0.0003158494        0.0002009039
Ti         0.0002538232        0.0000144639       -0.0006049415
Ti         0.0000190757       -0.0001861284       -0.0004174353
Ti        -0.0003240513        0.0002931907        0.0000181807
Ti        -0.0003006858       -0.0001757059       -0.0002025135
Ti         0.0000150121        0.0002496020        0.0006048103
Ti        -0.0001810246        0.0001821685       -0.0000206732
Ti         0.0002485129       -0.0001817661        0.0005289468
Ti         0.0002822825        0.0001793741       -0.0001648118
Ti        -0.0001797744       -0.0001838903       -0.0003301082
Ti         0.0002939531        0.0002960880       -0.0000027741
Ti        -0.0001864592       -0.0001760741       -0.0000000349
Ti         0.0002686814       -0.0001780112        0.0001916484
Ti        -0.0001803562        0.0002691761       -0.0001829374
O        -0.0001043815       -0.0003459159        0.0000962300
O         0.0000833128        0.0001491821        0.0002791817
O        -0.0003448904        0.0000942915        0.0000837042
O         0.0001556771       -0.0001089758        0.0002707130
O         0.0000946531       -0.0003440391       -0.0000833176
O        -0.0001109941        0.0001525717       -0.0002685962
O         0.0001481413        0.0000828505       -0.0002783521
O        -0.0003477877       -0.0001039664       -0.0000936160
O        -0.0001139588        0.0000351531       -0.0002742528
O         0.0000995220        0.0003509742        0.0000807014
O        -0.0001430624        0.0000828339        0.0002918710
O         0.0001495808       -0.0001022594       -0.0000645028
O         0.0000701819        0.0000336698        0.0003052855
O        -0.0001055298        0.0003522750       -0.0000888167
O         0.0001462704        0.0000838984        0.0001349629
O        -0.0001471815       -0.0001074903       -0.0002819398
O         0.0000342118       -0.0001144887        0.0002750639
O         0.0003516735        0.0000988073       -0.0000787511
O         0.0003540134       -0.0001067665        0.0000912494
O         0.0000343659        0.0000681084       -0.0003062819
O         0.0000884725        0.0001489551       -0.0001339686
O        -0.0001098663       -0.0001528764        0.0002839656