     192
 i =        1, E =     -5768.8799408850
Ti        -0.0006787824       -0.0006796291        0.0000093637
Ti         1.8924840472        1.8924883124        4.8075186213
Ti        -0.0006777976        1.8924899884        2.4026603953
Ti         1.8924898488       -0.0006544244        7.2123738876
Ti        -0.0006448520        3.7810929470        0.0016327327
Ti         1.8924842372       13.2394667759        4.8064071516
Ti        11.3463567953        1.8924819839        2.4037285469
Ti         5.6738225347       -0.0006211287        7.2132548113
Ti         1.8924605776        3.7811330817        7.2107530532
Ti        -0.0006926685       13.2395047173        2.4037709849
Ti         5.6738395881        1.8924477467        4.8066141809
Ti        11.3463457000       -0.0006641872       -0.0010756822
Ti         3.7811034475       -0.0006405028       -0.0016223210
Ti        13.2394600541        1.8924722412        4.8086378794
Ti        13.2394953875       -0.0007104461        7.2112467099
Ti         3.7811295850        1.8924547659        2.4042394167
Ti         1.8924539530        5.6737942338        4.8084075850
Ti        -0.0006821010       11.3463543778        0.0010794985
Ti        -0.0006478874        5.6738373990        2.4017602468
Ti         1.8924642304       11.3463500700        7.2113059865
Ti        -0.0006523262        7.5651205843        0.0019710256
Ti         1.8924842436        9.4577911759        4.8079969418
Ti         7.5651171110        1.8924562135        2.4046278898
Ti         9.4578012261       -0.0006133413        7.2128434980
Ti         1.8924430763        7.5650935632        7.2103670829
Ti        -0.0006281443        9.4577824797        2.4021575154
Ti         9.4577840891        1.8924648074        4.8070351649
Ti         7.5651150851       -0.0006418794       -0.0019667579
Ti         3.7811523363        3.7811351146        0.0000046029
Ti        13.2394665974       13.2394985595        4.8075208513
Ti        11.3463885204        5.6738317126        2.4028355515
Ti         5.6738249846       11.3464081175        7.2121912191
Ti        13.2394465841        3.7810933671        7.2096302407
Ti         3.7810958866       13.2394501488        2.4053656883
Ti         5.6738071860        5.6738417245        4.8075070213
Ti        11.3463682911       11.3463620898       -0.0000116805
Ti        11.3463553654       13.2394765307        2.4048293567
Ti         5.6738510197        3.7811273962        7.2116287627
Ti         3.7811319428       11.3463720917       -0.0005295019
Ti        13.2394261410        5.6738227620        4.8095180727
Ti         5.6738361333       13.2394282630        4.8055115845
Ti        11.3463606735        3.7811349626        0.0005325562
Ti        13.2394834676       11.3463548669        7.2101749191
Ti         3.7811288369        5.6738137915        2.4033726927
Ti         3.7811327252        7.5651326679        0.0003839988
Ti        13.2394380733        9.4578201417        4.8091238637
Ti         7.5651147155        5.6738487597        2.4037417825
Ti         9.4577754433       11.3463835170        7.2117809537
Ti        13.2394320223        7.5651169377        7.2092810669
Ti         3.7811763833        9.4577755141        2.4037932527
Ti         9.4577701725        5.6737880395        4.8079251639
Ti         7.5651181240       11.3463926123       -0.0009067335
Ti        11.3463653137        9.4577906765        2.4032361965
Ti         5.6738394461        7.5651182107        7.2112772811
Ti         5.6738661892        9.4577830164        4.8070860662
Ti        11.3463997980        7.5650996972        0.0009096223
Ti         9.4577527466        3.7811557173        7.2112292292
Ti         7.5651280799       13.2394063888        2.4057386360
Ti         7.5651371149        3.7811320364       -0.0003724445
Ti         9.4578106954       13.2394286925        4.8059188376
Ti         7.5651209466        7.5651188282        0.0000033903
Ti         9.4577115415        9.4577808980        4.8074993786
Ti         7.5650849358        9.4577860369        2.4041450064
Ti         9.4577784748        7.5650761261        7.2108605650
O         0.0012135555        0.0024138165        1.9860724868
O         1.8832428770        1.8897456962        6.7916282404
O         0.0023773381        1.8830372584        4.3889247356
O         1.8896651136        0.0011897975        9.1962084390
O         1.8830310432        0.0023945629        5.2260669515
O         0.0011859611        1.8896517249        0.4188279064
O         1.8897117535        1.8832598297        2.8234061964
O         0.0024224810        0.0012140259        7.6289655348
O         0.0012284302        3.7815631021        1.9859947307
O         1.8830494959       13.2363743556        6.7926972159
O        11.3491155234        1.8832292937        4.3878428189
O         5.6727583311        0.0012109591        9.1975606014
O         1.8834514674        3.7815698724        5.2260848291
O         0.0012207315       13.2363627361        0.4176986149
O         5.6727825997        1.8835418734        2.8219369471
O        11.3491685880        0.0012020814        7.6300820754
O         3.7815461430        0.0011844680        7.6290518697
O        13.2363610126        1.8830466739        2.8223604308
O        13.2363476083        0.0011965693        9.1973223448
O         3.7815923752        1.8834505298        4.3889469916
O         1.8835968194        5.6727620647        6.7930590568
O         0.0011927992       11.3491629366        1.9849485372
O         0.0012236774        5.6727521208        0.4174671636
O         1.8832183705       11.3491124639        5.2271871354
O         0.0012170890        7.5662238888        1.9862551719
O         1.8834886245        9.4572963561        6.7926957891
O         7.5662124026        1.8835461012        4.3893109485
O         9.4573364972        0.0012191014        9.1972130545
O         1.8835196714        7.5662009403        5.2256680353
O         0.0012410490        9.4573438449        0.4178279572
O         9.4573233954        1.8834447361        2.8223512469
O         7.5662289386        0.0011668930        7.6287325671
O         3.7736062051        0.0023619948        1.9847683625
O        13.2371702552        1.8896368709        6.7924782678
O         0.0023470383        5.6699817641        4.3882679327
O         1.8896990259       11.3554443165        9.1954230918
O        13.2372176746        0.0023921699        5.2251923260
O         3.7736500666        1.8897803316        0.4199463375
O         1.8897898227        5.6699241098        2.8239726012
O         0.0023831941       11.3555989140        7.6298478134
O        11.3554637979        1.8897205382        0.4196011705
O         5.6698998924        0.0023391487        5.2267343315
O         5.6699346981        1.8897882728        6.7910561824
O        11.3556039875        0.0023882379        1.9852196561
O         1.8897800663        3.7736758377        9.1950349175
O         0.0023988298       13.2371961076        4.3898451762
O         0.0023564926        3.7735589236        7.6302769128
O         1.8896426680       13.2371655080        2.8225588025
O         3.7737504559        3.7815752312        1.9850067089
O        13.2371383993       13.2363566116        6.7935430399
O        11.3490401483        5.6699993826        4.3872372621
O         5.6727762319       11.3551106692        9.1968213564
O        13.2372662620        3.7815464871        5.2252818638
O         3.7735510696       13.2363893278        0.4189625241
O         5.6727648250        5.6699610687        2.8222160297
O        11.3491207026       11.3554361185        7.6308889909
O        11.3556055840       13.2363777687        0.4185465053
O         5.6699605316        3.7816023083        5.2264130012
O         3.7815697254       11.3551751726        7.6297980644
O        13.2364117670        5.6699012998        2.8230324130
O         5.6699478799       13.2364308825        6.7920396721
O        11.3551645586        3.7815830728        1.9852191329
O        13.2363704196       11.3556076345        9.1964341460
O         3.7816008518        5.6699770374        4.3885416583
O         5.6699035901        5.6727725252        6.7928038555
O        11.3554271021       11.3491140087        1.9841204415
O        13.2363851905        3.7735714478        9.1960462362
O         3.7815562152       13.2372671232        4.3897203739
O        11.3551048697        5.6727641528        0.4182089345
O         5.6698842633       11.3490561285        5.2278048775
O         3.7816211578        3.7737414356        7.6300332092
O        13.2363498535       13.2371369377        2.8214721965
O        13.2372381757       11.3491888418        5.2263510556
O         3.7737820113        5.6727888999        0.4183282811
O         5.6727502204       13.2372383185        2.8212141408
O        11.3490449476        3.7736290083        7.6312692620
O         3.7736402199       11.3490623093        1.9837482649
O        13.2371987555        5.6727490642        6.7937883200
O        11.3491633840       13.2372379958        4.3886602737
O         5.6728027829        3.7737834379        9.1967034979
O         3.7737400243        7.5662054304        1.9854304709
O        13.2372030104        9.4573509784        6.7934576360
O         7.5661916936        5.6699669045        4.3890078523
O         9.4573320284       11.3551736423        9.1964617089
O        13.2372445173        7.5662421505        5.2249895657
O         3.7737645495        9.4573039674        0.4188070499
O         9.4573061826        5.6699047596        2.8227529269
O         7.5662065668       11.3550784308        7.6294870931
O        11.3551757584        9.4573172946        0.4185221766
O         5.6699249451        7.5662105450        5.2260501534
O         5.6699615087        9.4573038777        6.7922655030
O        11.3550926602        7.5662227472        1.9855754459
O         9.4572971492        3.7737778478        9.1961675446
O         7.5662363040       13.2372646321        4.3900348536
O         7.5661982663        3.7737572331        7.6296658289
O         9.4573619066       13.2372450601        2.8215702116
O         7.5693481384        0.0023337220        1.9845792371
O         9.4653258119        1.8898087930        6.7912919575
O         0.0023688691        9.4653357742        4.3885359986
O         1.8897834075        7.5693059159        9.1948281602
O         9.4653850386        0.0023644348        5.2264457312
O         7.5693197473        1.8897824891        0.4202014654
O         1.8898099458        9.4653405390        2.8237111876
O         0.0023375383        7.5693735263        7.6305034610
O         7.5693578763        3.7816189167        1.9848289184
O         9.4654123456       13.2364144494        6.7923168876
O        11.3490067067        9.4652699852        4.3875642459
O         5.6727853103        7.5693080217        9.1965557141
O         9.4651699760        3.7815892281        5.2263040318
O         7.5693537062       13.2364045357        0.4192305282
O         5.6727858123        9.4651353398        2.8221493198
O        11.3490400251        7.5693933197        7.6314919830
O         3.7816055891        7.5693776816        7.6301766682
O        13.2364008301        9.4654115424        2.8227411524
O        13.2364043674        7.5693606465        9.1957626886
O         3.7816492247        9.4651607040        4.3887754386
O         9.4651576354        5.6727641485        6.7928845920
O         7.5693712746       11.3490390682        1.9834609139
O         7.5693134576        5.6727836998        0.4184863218
O         9.4653482714       11.3490623686        5.2275468383
O         7.5693914849        7.5662119332        1.9852492199
O         9.4651873034        9.4572816843        6.7924984855
O         7.5661863859        9.4650694883        4.3890767768
O         9.4573051529        7.5693382584        9.1960684226
O         9.4652541192        7.5661790652        5.2258242538
O         7.5693230980        9.4573058698        0.4189977736
O         9.4572629216        9.4652181757        2.8225202403
O         7.5662183760        7.5694028398        7.6297624663
     192
 i =        2, E =     -5768.8820169195
Ti         0.0010672821        0.0010645815        0.0000120986
Ti         1.8882836704        1.8882817693        4.8075089000
Ti         0.0010338682        1.8881947798        2.4017231354
Ti         1.8881940179        0.0010254349        7.2133427056
Ti         0.0010195613        3.7772233628        0.0030660552
Ti         1.8881924272       13.2374965230        4.8054378235
Ti        11.3504452124        1.8882684770        2.4036892216
Ti         5.6720056954        0.0009574720        7.2159647280
Ti         1.8883629250        3.7772342537        7.2102359635
Ti         0.0010625841       13.2374817046        2.4038050099
Ti         5.6720182630        1.8883169404        4.8048454629
Ti        11.3505180314        0.0010324648       -0.0019943893
Ti         3.7772259475        0.0010112841       -0.0030817013
Ti        13.2374991269        1.8881923558        4.8095939069
Ti        13.2374704365        0.0010448054        7.2112384211
Ti         3.7772544121        1.8883628752        2.4047769008
Ti         1.8883119626        5.6720070344        4.8101380053
Ti         0.0010350235       11.3505155157        0.0019876683
Ti         0.0009532478        5.6720093381        2.3990613591
Ti         1.8882610169       11.3504349146        7.2113646489
Ti         0.0009640069        7.5671545082        0.0046454551
Ti         1.8883647497        9.4616948790        4.8084575695
Ti         7.5671388878        1.8883163379        2.4063650604
Ti         9.4617191695        0.0009989631        7.2142376569
Ti         1.8883255272        7.5671308000        7.2086497709
Ti         0.0010092928        9.4617152844        2.4007947679
Ti         9.4616977746        1.8883621576        4.8065624349
Ti         7.5671531036        0.0009575553       -0.0046633525
Ti         3.7772893315        3.7772680048       -0.0000100939
Ti        13.2374768812       13.2374847718        4.8075170969
Ti        11.3503914912        5.6720181230        2.4010417382
Ti         5.6720058256       11.3504125026        7.2140010545
Ti        13.2375379513        3.7772151229        7.2081828660
Ti         3.7772252444       13.2375364438        2.4068354907
Ti         5.6719784136        5.6720031411        4.8074973835
Ti        11.3504476043       11.3504407918       -0.0000222125
Ti        11.3505105717       13.2375097708        2.4057625373
Ti         5.6720382088        3.7771786124        7.2127469678
Ti         3.7772413039       11.3503551136       -0.0011008375
Ti        13.2375833170        5.6720034321        4.8122360886
Ti         5.6719932776       13.2376039686        4.8027787787
Ti        11.3503554151        3.7772482618        0.0011073290
Ti        13.2375104767       11.3505163698        7.2092562662
Ti         3.7771760889        5.6720305718        2.4022765373
Ti         3.7771856431        7.5671285637        0.0014571309
Ti        13.2375428865        9.4617183717        4.8105074369
Ti         7.5671447718        5.6720018948        2.4037166204
Ti         9.4617124441       11.3503495141        7.2122933827
Ti        13.2375795168        7.5671655655        7.2065795106
Ti         3.7772822050        9.4616687825        2.4038652401
Ti         9.4617625176        5.6720156537        4.8090748824
Ti         7.5671419569       11.3504031831       -0.0026881442
Ti        11.3503416166        9.4617111252        2.4027276831
Ti         5.6720006827        7.5671613483        7.2113007091
Ti         5.6720340867        9.4617506129        4.8059330487
Ti        11.3503985851        7.5671526659        0.0026812938
Ti         9.4616699505        3.7772616167        7.2111661488
Ti         7.5671624248       13.2375910530        2.4084400190
Ti         7.5671255702        3.7771908306       -0.0014559977
Ti         9.4617395464       13.2375293566        4.8045216718
Ti         7.5671629512        7.5671561344       -0.0000039569
Ti         9.4616761011        9.4616556168        4.8074957821
Ti         7.5671282821        9.4617536945        2.4052811057
Ti         9.4617695126        7.5671243301        7.2097157744
O         0.0004514682        0.0002702543        1.9788607293
O         1.8868952546        1.8887705757        6.7831357591
O         0.0003256342        1.8870461843        4.3818246976
O         1.8887547467        0.0004855753        9.1876896963
O         1.8870460830        0.0003351603        5.2331989781
O         0.0004666271        1.8887505702        0.4273674258
O         1.8887719003        1.8868718440        2.8318828750
O         0.0002786554        0.0004549104        7.6361799378
O         0.0004031464        3.7773625020        1.9800168323
O         1.8870526470       13.2382031179        6.7855429438
O        11.3499195431        1.8869081294        4.3793052345
O         5.6713159634        0.0004334281        9.1924624009
O         1.8865453931        3.7774413825        5.2319849661
O         0.0004391316       13.2382683034        0.4249646920
O         5.6713467933        1.8864759636        2.8269607501
O        11.3499219227        0.0004638924        7.6386737391
O         3.7773560874        0.0004377603        7.6350049942
O        13.2382053703        1.8870564208        2.8294942754
O        13.2382620210        0.0004471177        9.1900783126
O         3.7774425663        1.8865650928        4.3830491810
O         1.8864475283        5.6713192963        6.7880117393
O         0.0004492436       11.3499296370        1.9763430599
O         0.0003927785        5.6713098766        0.4225736485
O         1.8869011433       11.3499029918        5.2357472322
O         0.0004065526        7.5678439721        1.9811187567
O         1.8865402014        9.4614892711        6.7866957667
O         7.5678150814        1.8864734366        4.3842434289
O         9.4615693605        0.0004412771        9.1911735747
O         1.8864805701        7.5678133164        5.2307769297
O         0.0004032332        9.4615657163        0.4238903262
O         9.4615095140        1.8865768786        2.8283260946
O         7.5678473630        0.0004642792        7.6338656025
O         3.7671791987        0.0003987384        1.9777270104
O        13.2381405660        1.8887393502        6.7839239756
O         0.0003922648        5.6629946591        4.3805491283
O         1.8887546189       11.3515733518        9.1869526017
O        13.2381408137        0.0002705585        5.2324226808
O         3.7672229064        1.8887953647        0.4283568172
O         1.8887123867        5.6628485476        2.8329722384
O         0.0003233254       11.3514324285        7.6369453666
O        11.3515613266        1.8887633764        0.4280801429
O         5.6628625664        0.0004016089        5.2344761360
O         5.6629106356        1.8887021726        6.7820313699
O        11.3514347862        0.0003250496        1.9780990978
O         1.8888032717        3.7672346204        9.1866429547
O         0.0002847737       13.2381632869        4.3826273261
O         0.0003914386        3.7671854820        7.6372876745
O         1.8887474131       13.2381509075        2.8310949154
O         3.7670932055        3.7775030297        1.9792103200
O        13.2381607857       13.2382718175        6.7862950841
O        11.3499922201        5.6629836498        4.3781673866
O         5.6713235481       11.3520227641        9.1918198477
O        13.2381350806        3.7773596382        5.2312748735
O         3.7671927288       13.2381426614        0.4260268156
O         5.6712923519        5.6627156903        2.8273557166
O        11.3499288411       11.3515780699        7.6394280024
O        11.3514266063       13.2382105627        0.4256859805
O         5.6628005184        3.7774536691        5.2325864668
O         3.7774187768       11.3519317020        7.6356947178
O        13.2381524091        5.6628497956        2.8307701258
O         5.6629489600       13.2381537867        6.7842762050
O        11.3519204294        3.7774290419        1.9793316838
O        13.2382164447       11.3514248242        9.1893156637
O         3.7774559653        5.6628068203        4.3824034646
O         5.6626268213        5.6713022643        6.7876500461
O        11.3515719766       11.3499128812        1.9755729784
O        13.2381474836        3.7672128026        9.1890039773
O         3.7773494551       13.2381292888        4.3837499343
O        11.3520284286        5.6713369572        0.4232193197
O         5.6628490887       11.3500049001        5.2368728704
O         3.7775366969        3.7670675542        7.6358089153
O        13.2382568077       13.2381769584        2.8287105559
O        13.2381229522       11.3499308013        5.2349531501
O         3.7670490884        5.6713523779        0.4232615443
O         5.6713121314       13.2380843635        2.8263135470
O        11.3498966395        3.7672501691        7.6397342067
O         3.7672787364       11.3498938409        1.9752841722
O        13.2381286842        5.6713056599        6.7886891673
O        11.3499394618       13.2381169874        4.3800733974
O         5.6713680501        3.7670416733        9.1917913931
O         3.7670421297        7.5678094789        1.9804470755
O        13.2381576546        9.4615878999        6.7873836156
O         7.5678234785        5.6627412981        4.3838211434
O         9.4615154263       11.3519394225        9.1904869359
O        13.2381334591        7.5678515163        5.2301417687
O         3.7671141837        9.4614164478        0.4246810795
O         9.4614784308        5.6626831792        2.8289802973
O         7.5678260752       11.3520417030        7.6345271712
O        11.3519467923        9.4615135857        0.4245206075
O         5.6626563324        7.5678223586        5.2312440076
O         5.6628357455        9.4614876977        6.7860376588
O        11.3520260435        7.5678377257        1.9805039774
O         9.4614135090        3.7671032947        9.1903210366
O         7.5678469368       13.2380698831        4.3849008374
O         7.5677901223        3.7670404236        7.6346094344
O         9.4615793311       13.2381050368        2.8276287210
O         7.5769209372        0.0003952165        1.9768366477
O         9.4712381073        1.8887806839        6.7829007023
O         0.0004051306        9.4712766980        4.3815417919
O         1.8887185192        7.5768475243        9.1858227339
O         9.4712883721        0.0004086787        5.2334777610
O         7.5768941404        1.8887067950        0.4292161956
O         1.8888066607        9.4712735519        2.8321078018
O         0.0003912606        7.5769487127        7.6381982633
O         7.5771174759        3.7774568019        1.9786859665
O         9.4712797423       13.2381346754        6.7852748008
O        11.3498891469        9.4712554687        4.3790937179
O         5.6713223335        7.5771134558        9.1914236742
O         9.4713990778        3.7775250646        5.2320590720
O         7.5769194464       13.2381514170        0.4269736931
O         5.6713647716        9.4714734067        2.8270451818
O        11.3499774174        7.5769644395        7.6405611252
O         3.7774621988        7.5771508910        7.6363246597
O        13.2381292256        9.4712940055        2.8297661332
O        13.2381462900        7.5769105420        9.1880329278
O         3.7775403383        9.4714016836        4.3830035447
O         9.4714305127        5.6713431017        6.7879826278
O         7.5769384737       11.3499937412        1.9744146781
O         7.5771285557        5.6713242280        0.4236240763
O         9.4711987416       11.3498918713        5.2359831528
O         7.5772501524        7.5678239647        1.9800557474
O         9.4713544912        9.4614162327        6.7866096846
O         7.5677943629        9.4714617187        4.3841583936
O         9.4614837557        7.5770134662        9.1898191393
O         9.4714193193        7.5677715741        5.2308063546
O         7.5769973561        9.4614822863        0.4252237300
O         9.4613996950        9.4714419943        2.8283949606
O         7.5678534653        7.5772455063        7.6349350283
     192
 i =        3, E =     -5768.8823708181
Ti         0.0002350321        0.0002403454        0.0000179855
Ti         1.8886147308        1.8885888202        4.8075068017
Ti         0.0002476665        1.8886366850        2.4034246179
Ti         1.8886311151        0.0002351184        7.2116308519
Ti         0.0002608837        3.7750742238        0.0024788572
Ti         1.8886374473       13.2383032766        4.8071528233
Ti        11.3500674142        1.8886019456        2.4037171608
Ti         5.6704012802        0.0002227483        7.2154601979
Ti         1.8885875995        3.7750285736        7.2090857415
Ti         0.0002478412       13.2383211616        2.4037838692
Ti         5.6703771254        1.8884646163        4.8035628048
Ti        11.3500319636        0.0002470044       -0.0003192616
Ti         3.7750719169        0.0002619788       -0.0024828800
Ti        13.2383062841        1.8886447975        4.8078746110
Ti        13.2383133916        0.0002392833        7.2112557502
Ti         3.7750437602        1.8885921591        2.4059307027
Ti         1.8884546089        5.6703848478        4.8114377278
Ti         0.0002473269       11.3500311749        0.0003312379
Ti         0.0002043489        5.6703890257        2.3995505533
Ti         1.8886084277       11.3500662430        7.2113232222
Ti         0.0002298282        7.5688652622        0.0041207935
Ti         1.8885748543        9.4638288155        4.8095931721
Ti         7.5688835476        1.8884711651        2.4076131047
Ti         9.4637986741        0.0002523004        7.2136267649
Ti         1.8884903784        7.5688902357        7.2074020877
Ti         0.0002555998        9.4638052422        2.4014009831
Ti         9.4638247448        1.8885684902        4.8054358484
Ti         7.5688684459        0.0002320831       -0.0041239620
Ti         3.7750661711        3.7750559727       -0.0000075259
Ti        13.2383176221       13.2383255697        4.8075122788
Ti        11.3501955239        5.6703783292        2.3997752845
Ti         5.6703750599       11.3502142134        7.2152501764
Ti        13.2382986790        3.7750742843        7.2087950165
Ti         3.7750775882       13.2382910284        2.4062345059
Ti         5.6702870375        5.6703063936        4.8075102503
Ti        11.3500616360       11.3500629006       -0.0000118583
Ti        11.3500287073       13.2383123174        2.4040831451
Ti         5.6703549915        3.7749089945        7.2129022782
Ti         3.7750439286       11.3500836763       -0.0022146134
Ti        13.2383274364        5.6704013990        4.8117245297
Ti         5.6703826227       13.2383268926        4.8032985640
Ti        11.3500933780        3.7750449796        0.0022310844
Ti        13.2383061127       11.3500179186        7.2109376110
Ti         3.7748998748        5.6703702226        2.4021132687
Ti         3.7749196565        7.5688986567        0.0015683128
Ti        13.2382914504        9.4637937412        4.8098793047
Ti         7.5689677615        5.6703040481        2.4036774845
Ti         9.4638264613       11.3500785055        7.2133753960
Ti        13.2383245489        7.5688753240        7.2071276884
Ti         3.7750501326        9.4638116052        2.4038793391
Ti         9.4639530726        5.6703717132        4.8092568554
Ti         7.5688823871       11.3502037375       -0.0039048796
Ti        11.3500933034        9.4638431460        2.4016376097
Ti         5.6702996143        7.5689793423        7.2113278509
Ti         5.6703438451        9.4639590033        4.8057724535
Ti        11.3501908586        7.5689003768        0.0039007622
Ti         9.4638219503        3.7750508907        7.2111525755
Ti         7.5688723684       13.2383290298        2.4078886262
Ti         7.5688929919        3.7749206990       -0.0015663561
Ti         9.4637958193       13.2382752505        4.8051434093
Ti         7.5689685384        7.5689582705       -0.0000016107
Ti         9.4638332625        9.4637991747        4.8075074769
Ti         7.5689308608        9.4639490695        2.4054283841
Ti         9.4639503337        7.5689226191        7.2095737589
O         0.0013585212        0.0016831333        1.9770808241
O         1.8843590353        1.8871508484        6.7812969883
O         0.0016647163        1.8843299015        4.3817775234
O         1.8871486153        0.0013813816        9.1841455331
O         1.8843320115        0.0016553977        5.2332615204
O         0.0013918769        1.8871553981        0.4309021624
O         1.8871605172        1.8843566217        2.8337222032
O         0.0016843674        0.0013584930        7.6379732167
O         0.0013691372        3.7767478440        1.9760260979
O         1.8843091541       13.2368791126        6.7855378215
O        11.3515016652        1.8843639769        4.3775839461
O         5.6711367767        0.0012876151        9.1901997260
O         1.8843132954        3.7767424748        5.2341466617
O         0.0013637538       13.2368587481        0.4267012470
O         5.6711434527        1.8842057814        2.8273838615
O        11.3515004462        0.0013782361        7.6421027261
O         3.7767534296        0.0013752377        7.6389993377
O        13.2368790258        1.8843104156        2.8294961167
O        13.2368546100        0.0013722911        9.1883370952
O         3.7767451807        1.8843231979        4.3808620960
O         1.8841895002        5.6711319974        6.7876153717
O         0.0013872289       11.3515087669        1.9729288109