     192
 i =        1, E =     -5782.1188951776
Ti        -0.0631129525        0.0936333317        0.0656897916
Ti         1.8667799168        1.9237427884        4.8992130309
Ti         0.0470029788        2.0301210278        2.5307028347
Ti         1.8642076972       -0.0466700022        7.1726283072
Ti        -0.0338154231        3.8292425590       -0.0534265324
Ti         1.9498498258       13.1921265747        4.8337452252
Ti        11.2881041978        1.9808737621        2.4508870747
Ti         5.6073777864       -0.0901752564        7.2230352076
Ti         1.9054190699        3.8181113310        7.2356727308
Ti         0.0249884261       13.3472309429        2.4743801098
Ti         5.6780671402        1.8359665923        4.8275015864
Ti        11.3030213009        0.1155383892       -0.0449772829
Ti         3.6768450905        0.0970332425        0.0486844292
Ti        13.1229776550        1.7699419346        4.7044533145
Ti        13.2668065738       -0.0450661527        7.1547587049
Ti         3.7507175917        1.8026892213        2.5220182501
Ti         1.9716628817        5.6387229238        4.8509121256
Ti         0.0014756409       11.5694861159        0.0038770603
Ti        -0.0224574054        5.7229464227        2.4872243427
Ti         1.8985653486       11.3179484851        7.3611035310
Ti         0.0703857159        7.5006454610        0.0523900515
Ti         2.0395962896        9.5182316869        4.9044071392
Ti         7.4987882717        1.9570700319        2.3510002722
Ti         9.4692536383       -0.1312828002        7.2261940691
Ti         1.9466928846        7.5789448784        7.1610150347
Ti         0.1326953989        9.5811132829        2.4776510016
Ti         9.3284582660        1.8086285446        4.7679086162
Ti         7.4643821428       -0.0615631447       -0.0795337511
Ti         3.7293449217        3.7832446421       -0.0065381864
Ti        13.2373088925       13.1248314737        4.7426711280
Ti        11.3746390462        5.7264261554        2.3766062377
Ti         5.6791572011       11.3256003399        7.1523994656
Ti        13.1722926958        3.6800133467        7.2406249918
Ti         3.7725748721       13.1623105242        2.4440729722
Ti         5.6798464764        5.7199156198        4.8435456864
Ti        11.2223984195       11.3899318631        0.1081068139
Ti        11.2850949305       13.3340069200        2.3542372804
Ti         5.6590005773        3.7268433348        7.1289892138
Ti         3.8833386495       11.4219136590        0.0418938548
Ti        13.2877521692        5.5838088750        4.9029628639
Ti         5.7976896465       13.2086878765        4.8101896947
Ti        11.2679502659        3.7902008034       -0.0769045346
Ti        13.0947913069       11.3813731531        7.2645865226
Ti         3.7915975768        5.6090628566        2.3937227739
Ti         3.7989656530        7.5570240049        0.0454424453
Ti        13.3033257861        9.4210366065        4.8374261668
Ti         7.5198019802        5.6772602862        2.3894097585
Ti         9.4263318447       11.1421483140        7.1729772284
Ti        13.3045811973        7.5415128519        7.2321114093
Ti         3.8833371263        9.4428782608        2.3386479205
Ti         9.5211697999        5.5609501456        4.7065737252
Ti         7.5323191116       11.3432835884        0.0703483670
Ti        11.4047093747        9.4482454799        2.4127185529
Ti         5.6601850934        7.6065869973        7.2010058387
Ti         5.7791647525        9.4230439070        4.7423393023
Ti        11.3216471537        7.5743239908        0.0061437630
Ti         9.4276739661        3.6451943366        7.1664425768
Ti         7.5400334783       13.3082513742        2.4063186985
Ti         7.4635237618        3.7981964948       -0.0641758873
Ti         9.5122432409       13.2422809535        4.7814188607
Ti         7.5985289231        7.5334821875       -0.0564317345
Ti         9.5306705876        9.3932978883        4.7597718951
Ti         7.6383310169        9.4169946292        2.3230954085
Ti         9.5155546091        7.3580061966        7.1444569179
O         0.0553696594        0.0826927720        2.0916783348
O         1.6666408701        1.9359627432        6.7381382210
O        -0.0704012150        2.0004211320        4.4144761139
O         1.7984337876        0.1486679112        9.2362467099
O         1.8078159890       -0.0173076257        5.2605510504
O        -0.1512547469        2.0053684715        0.4924845083
O         1.8668732013        2.1772074955        2.8327915590
O        -0.0703662167       -0.0502204545        7.6230748029
O        -0.0294803776        3.9093246076        2.0823568617
O         1.9949233427       13.2700473432        6.8239919897
O        11.2873545888        1.8273875430        4.3150201037
O         5.6318683048       -0.0210697938        9.2666977871
O         2.1124100788        3.7577947690        5.1791756314
O         0.0535227568       13.3699569699        0.4372828655
O         5.6317464563        1.8517946588        2.8367983325
O        11.2853150932        0.0676969218        7.5628877650
O         3.7117192265        0.1185044076        7.6905912517
O        13.1896328023        1.8723547314        2.8309106189
O        13.1743976817       -0.1067180587        9.2172169055
O         3.7109102241        1.6484851533        4.3778020493
O         1.9082227389        5.6230947320        6.7417905684
O         0.0592623017       11.4547739565        1.9188254025
O         0.0844699386        5.7208519983        0.4662565604
O         1.9150725147       11.3169241056        5.2355087243
O         0.1226055376        7.7227551905        1.9522637916
O         2.1602883745        9.4636625511        6.7783724464
O         7.4569904237        1.8629516166        4.3602668206
O         9.4160596309        0.0367424479        9.2003948197
O         1.8225178318        7.5679794346        5.2746583288
O         0.1120962093        9.5674298813        0.2722512640
O         9.3699816950        2.0413536289        2.8405983470
O         7.4835530519       -0.1605255532        7.6996807079
O         3.7494403664        0.0574192128        2.0371945668
O        13.2184799259        1.8491237909        6.7825152579
O         0.0049658729        5.6054162835        4.4885316408
O         1.9280361560       11.3544879992        9.2660907981
O        13.1720745203       -0.0302739584        5.1320078359
O         3.7069508716        1.9542867389        0.4340071469
O         1.9459755288        5.8036007461        2.9116043742
O         0.0969789844       11.4254500132        7.5678342939
O        11.3475250843        2.0061512166        0.2865148635
O         5.8157859561       -0.0860401289        5.2757731220
O         5.5650956466        1.8281267527        6.7846654425
O        11.2697241859        0.1389371579        1.8948804990
O         1.9065515278        3.8349840035        9.2047138351
O        -0.0192613848       13.1543652674        4.4554244442
O         0.0224816533        3.8013376951        7.6772552464
O         1.8858548863       13.2362144987        2.8669390115
O         3.9667953267        3.8375016491        2.0688814825
O        13.1057742082       13.2705186257        6.7318347191
O        11.3721657418        5.6624732774        4.3858902076
O         5.6902233344       11.4711620092        9.2260967245
O        13.1779440893        3.8031260998        5.2197166507
O         3.6389516520       13.3094653291        0.5078362901
O         5.7389531167        5.9128809385        2.7389363979
O        11.3037274860       11.3381210984        7.6544900412
O        11.2511954359       13.2704160773        0.4098553857
O         5.4938962786        3.7198240960        5.1851432783
O         3.7885365372       11.3694877628        7.6800835867
O        13.2779836084        5.9250280225        2.8738604446
O         5.5168312642       13.1996865725        6.7817303378
O        11.5431467957        3.8318977463        1.9192290963
O        13.2350875963       11.4075161663        9.2094978501
O         3.8640958249        5.7141232437        4.4066445797
O         5.7624939873        5.6338249937        6.7342056754
O        11.1224810687       11.4592970494        2.0013265245
O        13.2085947575        3.9100348177        9.1361033901
O         3.7978816046       13.2148591840        4.3898653084
O        11.3581392537        5.7370256365        0.4111301765
O         5.7873852933       11.3033733008        5.2364437320
O         3.7453014107        3.7230549395        7.6486178508
O        13.2124907214       13.2147340615        2.7154361279
O        13.0524568826       11.4090567487        5.1533344838
O         3.7136718867        5.6749789336        0.4291346730
O         5.6956717093       13.1675746603        2.8682346405
O        11.2945510064        3.5631123254        7.5573152009
O         3.9632115708       11.4061685261        1.9657100050
O        13.2139723378        5.6414591214        6.8996909505
O        11.2880707626       13.3497746686        4.3224986566
O         5.6640055271        3.8116091504        9.1415645071
O         3.7862017825        7.6352423657        1.9262059857
O        13.3106478236        9.5853219755        6.7525609111
O         7.5730286262        5.5279105816        4.3206600083
O         9.4246010271       11.3237763290        9.2236219659
O        13.2640082766        7.5874097077        5.4205138054
O         3.8107240033        9.5219536966        0.3603015164
O         9.5545171425        5.5803579093        2.7895780959
O         7.5226547919       11.3474274109        7.5744819850
O        11.3453143783        9.4923598589        0.4086334597
O         5.7312076019        7.5682801623        5.1630295446
O         5.5478287124        9.4183872633        6.7579822093
O        11.2248775383        7.6054990202        2.0188390395
O         9.4349512177        3.9486870792        9.1478137520
O         7.5914907710       13.0445819984        4.4521574258
O         7.5041533292        3.6458575443        7.5500374427
O         9.4299359450       13.4682160971        2.8562978195
O         7.4431869338       -0.0378487908        2.0370035855
O         9.2141015896        1.8078681860        6.7275178818
O         0.0795213086        9.3697313750        4.4357158400
O         1.9268170555        7.5776360621        9.2017962695
O         9.3119822328       -0.0325627900        5.1945484935
O         7.6346279974        1.9046721849        0.4393539061
O         1.9642654092        9.6986280970        2.7723236049
O         0.0422109965        7.5685687642        7.6171421849
O         7.5240350777        3.7973890006        1.9487892925
O         9.5035164968       13.2083708921        6.7430914891
O        11.4420363373        9.2295193609        4.3776412248
O         5.6686335071        7.6975710254        9.1257188185
O         9.4810370215        3.6885635748        5.1831092327
O         7.5678942771       13.2196728356        0.4186589865
O         5.7403552113        9.4004087405        2.7122266190
O        11.3031880373        7.6443424341        7.5957647120
O         3.7905768689        7.3647933339        7.6007642073
O        13.3243923577        9.6159099357        2.8080406445
O        13.2650268514        7.6760525576        9.3259266742
O         3.8515763726        9.4258500580        4.2973289300
O         9.6094229933        5.5295837618        6.7545434927
O         7.6429411005       11.3272565083        1.9605641528
O         7.3434958837        5.6954768133        0.3706444633
O         9.5560501186       11.2282164043        5.1972017402
O         7.8600951939        7.5899510582        1.9242317413
O         9.4490279721        9.4164130455        6.8100424664
O         7.5598469997        9.3775859592        4.3257757908
O         9.4712685742        7.4393255276        9.2191584517
O         9.3550269628        7.4826551263        5.2464463005
O         7.5174692275        9.4671788390        0.3629429917
O         9.5712014706        9.5097306162        2.8710051185
O         7.5967049970        7.5408932765        7.5881608919
     192
 i =        2, E =     -5782.2113510031
Ti        -0.0592652899        0.1161605371        0.0325545665
Ti         1.8564666286        1.9283801827        4.8824573659
Ti         0.0404529279        2.0108910777        2.4895790581
Ti         1.8456989866       -0.0659454615        7.1914119742
Ti        -0.0571023851        3.8292777751       -0.0339452956
Ti         1.9527204797       13.2066191566        4.8397540647
Ti        11.3008218692        1.9582628329        2.4337443470
Ti         5.6005579988       -0.0750815265        7.2139801078
Ti         1.9052594894        3.8053654950        7.2470197749
Ti         0.0083722086       13.3337338936        2.4602954448
Ti         5.6812190380        1.8517011267        4.8126196823
Ti        11.2921494628        0.0932251922       -0.0330467512
Ti         3.6601165538        0.0816232983        0.0342781076
Ti        13.1638078942        1.7919758390        4.7350536082
Ti        13.2652613059       -0.0404109175        7.1775254846
Ti         3.7639687347        1.8321930976        2.5080044157
Ti         1.9635627372        5.6576197563        4.8327445106
Ti         0.0001584959       11.5596864901       -0.0039883229
Ti        -0.0155272760        5.7103287751        2.4791072612
Ti         1.8791500510       11.3445902683        7.3312029110
Ti         0.0347060502        7.4927210627        0.0313523214
Ti         2.0235604023        9.5196356604        4.8644316739
Ti         7.5007340273        1.9551895822        2.3326454826
Ti         9.4829474550       -0.1120011175        7.2267813195
Ti         1.9385138797        7.5718726182        7.1751569479
Ti         0.1047290385        9.5523137394        2.4886671956
Ti         9.3506782948        1.8213894006        4.7911964535
Ti         7.4669208409       -0.0337279777       -0.0649199341
Ti         3.7395627850        3.7711514889        0.0031173430
Ti        13.2320542212       13.1166722426        4.7781993979
Ti        11.3602325489        5.7142471205        2.3858014139
Ti         5.6737233496       11.3190290112        7.1739308191
Ti        13.1642102473        3.7050273349        7.2311762210
Ti         3.7819656609       13.1932804227        2.4441120579
Ti         5.6985093229        5.6984986508        4.8352286041
Ti        11.2239317307       11.3869123392        0.0819172865
Ti        11.3051327156       13.3131840548        2.3469227966
Ti         5.6660496346        3.7258789905        7.1413448928
Ti         3.8670993489       11.3959199636        0.0216439704
Ti        13.2760000929        5.5924647870        4.8722126073
Ti         5.7719044822       13.2040764081        4.8060103720
Ti        11.2618979319        3.7979570040       -0.0441676263
Ti        13.1238411506       11.3531888791        7.2622001426
Ti         3.8028768140        5.6314675601        2.3933093775
Ti         3.7908771259        7.5815055053        0.0320247242
Ti        13.2853026019        9.4301033670        4.8406384634
Ti         7.4934157015        5.6844215892        2.4119405480
Ti         9.4105220738       11.1774988877        7.1698000307
Ti        13.2973434604        7.5276354296        7.1965319938
Ti         3.8583072152        9.4342502819        2.3517957691
Ti         9.5193333761        5.5730766295        4.7258173773
Ti         7.5654242372       11.3537526023        0.0430872817
Ti        11.3953642926        9.4536612662        2.4345124233
Ti         5.6641576185        7.5821222852        7.2242766899
Ti         5.7699552871        9.4203878169        4.7579893576
Ti        11.3299045668        7.5858385480       -0.0002766192
Ti         9.4364066571        3.6637462323        7.1746695099
Ti         7.5408021747       13.3250719773        2.3894186573
Ti         7.4745977724        3.7978277542       -0.0582993625
Ti         9.4974423264       13.2364170636        4.7878813393
Ti         7.6105683452        7.5329910162       -0.0629908867
Ti         9.5277156961        9.4211385505        4.7779075963
Ti         7.6132562532        9.4155013810        2.3303164652
Ti         9.5180036607        7.3891522373        7.1527343390
O         0.0563272133        0.0644656044        2.0281214869
O         1.7586089096        1.9170355372        6.7667374642
O        -0.0221242222        1.9780363059        4.3929990793
O         1.7970222183        0.1247824251        9.2105238951
O         1.8150527786       -0.0108276483        5.2663801586
O        -0.1171122048        2.0076490201        0.4519118728
O         1.8682480944        2.0914750876        2.8105214883
O        -0.0522013301       -0.0544181768        7.6403451136
O        -0.0612859179        3.8912321573        2.0705719396
O         1.9868627167       13.2442086901        6.8348113365
O        11.2941591956        1.8437200551        4.3424413201
O         5.6039322118        0.0179760288        9.2495910309
O         2.0650836629        3.7794085403        5.1932544964
O         0.0477361124       13.3723592666        0.4328456018
O         5.6341486028        1.9199691303        2.8206537794
O        11.3097768343        0.0763616373        7.5710648984
O         3.7019198407        0.0846458802        7.6677164644
O        13.1902806167        1.8969803024        2.8373392513
O        13.1859871743       -0.0289454659        9.1880968756
O         3.7214970128        1.6779668674        4.3980256653
O         1.8712633912        5.6372844040        6.7704964193
O         0.0234154938       11.4275577936        1.9157257572
O         0.0374619054        5.7094110083        0.4592400210
O         1.8936396101       11.3352670897        5.2411864722
O         0.1261096018        7.6972700107        1.9402840686
O         2.0538953281        9.4674069379        6.7940357111
O         7.4973108256        1.9140331881        4.3806268521
O         9.4182717163        0.0152697935        9.1731438223
O         1.8943996702        7.5664722948        5.2682925239
O         0.0846119578        9.5417996427        0.2705274767
O         9.3822726678        1.9824298847        2.8197969766
O         7.4779552651       -0.1320289801        7.6710291767
O         3.7347636086        0.0631348624        2.0325986766
O        13.2723502285        1.8663155354        6.7896172644
O         0.0124298898        5.5949019273        4.4642305403
O         1.8914422452       11.3517612712        9.2477065072
O        13.2299228472       -0.0049795510        5.1706587010
O         3.7140967468        1.9343074890        0.4428303557
O         1.9422815132        5.7509497830        2.8681786856
O         0.0466888064       11.4323734078        7.5964703545
O        11.3229293446        1.9829422641        0.3125120752
O         5.7878890060       -0.0569004876        5.2548287728
O         5.6318819920        1.8253315187        6.7808401731
O        11.2985861387        0.1287845216        1.9190485076
O         1.8853767508        3.8175797294        9.2360149596
O        -0.0106347913       13.2068649680        4.4135967528
O         0.0015227076        3.7825072424        7.6763063173
O         1.8815771380       13.2383315238        2.8632685018
O         3.9005927262        3.8479198282        2.0582644448
O        13.1565008337       13.2350390940        6.7828544003
O        11.3676838031        5.6662762988        4.4046442262
O         5.6973874793       11.4564173036        9.2265382812
O        13.1570267884        3.8042844396        5.2211938113
O         3.6491346291       13.2943715476        0.4751161880
O         5.7101815322        5.8736232821        2.7647677456
O        11.3195511213       11.3346616430        7.6145684771
O        11.2741786502       13.2733693813        0.3875221025
O         5.5856468275        3.7219729611        5.1865077370
O         3.7910759036       11.3759710232        7.6651634048
O        13.2873031871        5.9031561826        2.8669582436
O         5.5209258060       13.2042535393        6.8092433638
O        11.4779722926        3.8067367444        1.9617304430
O        13.2550952160       11.4306646581        9.1996157046
O         3.8552377215        5.7219073085        4.3996137550
O         5.7525058156        5.6324304147        6.7359085150
O        11.2150221621       11.4102756610        2.0074132423
O        13.2065604415        3.8908254048        9.1484251989
O         3.7835500792       13.2319712514        4.4160853588
O        11.4032438291        5.7426232641        0.4072591242
O         5.7410113997       11.2896185427        5.2473548047
O         3.7568300576        3.7238342924        7.6570008817
O        13.2313115325       13.2674831980        2.7752716665
O        13.0867393360       11.3467563713        5.1592045501
O         3.7412849357        5.6807207353        0.4233814945
O         5.6936911061       13.2323607754        2.8537906672
O        11.3026175133        3.5807700136        7.5784944388
O         3.9229159452       11.3995720379        1.9864986997
O        13.2214420667        5.6546809223        6.8374162633
O        11.3058004417       13.3098092243        4.3415465834
O         5.6583918720        3.7837861863        9.1598488767
O         3.7554154451        7.6105088828        1.9423234675
O        13.3106633830        9.5429720272        6.7824327710
O         7.5842524992        5.5193442450        4.3326336116
O         9.4332699447       11.3104587932        9.1742763879
O        13.2976655996        7.5752590776        5.3416990134
O         3.7970221785        9.5088075723        0.3788075341
O         9.5059092353        5.5784900409        2.7958145618
O         7.5189005726       11.3224426019        7.5642442822
O        11.3613864371        9.4840456755        0.4683205512
O         5.7456444665        7.5506804597        5.1786558241
O         5.5990494896        9.4040270076        6.7710571707
O        11.2994110481        7.6167275590        2.0016659700
O         9.4159200577        3.9300541443        9.1502501101
O         7.5734182957       13.0867314990        4.4082045344
O         7.5209197106        3.6935296076        7.5734457648
O         9.4261833237       13.3766017169        2.8222838880
O         7.4807880344        0.0032986173        2.0347649074
O         9.2813004200        1.8230857656        6.7607328542
O         0.0529397664        9.4355055588        4.4200563573
O         1.9071310335        7.6627890114        9.2134775357
O         9.3549064950       -0.0233235452        5.2038392672
O         7.5631463870        1.9137663087        0.4091834963
O         1.9361064741        9.6348583034        2.7665802062
O         0.0324911924        7.5854768217        7.6157697189
O         7.4793431649        3.8186061263        1.9473429460
O         9.4849477647       13.2157842769        6.7614872227
O        11.4123038213        9.2477605370        4.4030563377
O         5.6721946486        7.6510195112        9.1559522830
O         9.4562258182        3.7122858049        5.1944531024
O         7.5866385468       13.2533130547        0.4287959868
O         5.7304626268        9.4110606536        2.7506854459
O        11.3381299032        7.6261952615        7.6362513925
O         3.7830145268        7.3941991047        7.5974702581
O        13.2910995482        9.6019568625        2.8104263157
O        13.2659941901        7.6606655535        9.2303882353
O         3.8431457357        9.3935082103        4.3203292784
O         9.5410268131        5.5644908763        6.7648907905
O         7.6651525139       11.3300597322        1.9562770436
O         7.4138471712        5.6905307586        0.4022770916
O         9.5568084700       11.2541604767        5.2075137162
O         7.7917986783        7.5596423953        1.9438596461
O         9.4644947707        9.4098124882        6.8364971415
O         7.5813107393        9.3887174245        4.3440523632
O         9.4705647627        7.4974141376        9.1820865746
O         9.4019095399        7.4928599492        5.2312969783
O         7.5317729155        9.4541718489        0.3657455773
O         9.5275542729        9.5088522149        2.8646861809
O         7.5889795654        7.5159551787        7.5938090823
     192
 i =        3, E =     -5782.2484980791
Ti        -0.0485777184        0.1166348118        0.0176474024
Ti         1.8640017487        1.9210162743        4.8709115463
Ti         0.0362891094        2.0063951050        2.4713476486
Ti         1.8507861154       -0.0540629625        7.2008227337
Ti        -0.0665479046        3.8181912908       -0.0302970898
Ti         1.9499013260       13.2227647043        4.8286392457
Ti        11.3235935581        1.9448153112        2.4326128287
Ti         5.6056665616       -0.0521640104        7.2111540442
Ti         1.9011517288        3.7948486156        7.2472057021
Ti         0.0050429187       13.3341633145        2.4462854756
Ti         5.6867179889        1.8598421447        4.8135738741
Ti        11.2854646844        0.0820570438       -0.0276552377
Ti         3.6697376158        0.0799478588        0.0272502943
Ti        13.1816696638        1.8131176919        4.7659291804
Ti        13.2498699412       -0.0290877856        7.1966787454
Ti         3.7723804570        1.8408318396        2.4843539655
Ti         1.9587007380        5.6669763448        4.8266857594
Ti        -0.0131082098       11.5479762010       -0.0126565291
Ti        -0.0093362347        5.7006046369        2.4715841230
Ti         1.8651037029       11.3525714682        7.2983395633
Ti         0.0155393067        7.5014122554        0.0083028048
Ti         2.0035922390        9.5190693389        4.8473866463
Ti         7.5159393678        1.9469327170        2.3336426712
Ti         9.4708683380       -0.0932889268        7.2180110869
Ti         1.9261552445        7.5674730718        7.1770342524
Ti         0.0848394859        9.5304661374        2.4887764764
Ti         9.3658363055        1.8370196534        4.7875457484
Ti         7.4666980225       -0.0097603138       -0.0563360299
Ti         3.7449775080        3.7759332379        0.0121486697
Ti        13.2344764219       13.1407711614        4.7824498015
Ti        11.3628965466        5.7079836693        2.3923672362
Ti         5.6689366663       11.3189099521        7.1898997638
Ti        13.1765013605        3.7207237953        7.2190483218
Ti         3.7796916401       13.2174704347        2.4228305081
Ti         5.7000843617        5.6811663182        4.8401847540
Ti        11.2400281572       11.3879270329        0.0554651884
Ti        11.3232800332       13.2976858068        2.3668553087
Ti         5.6654726266        3.7323028992        7.1580683687
Ti         3.8457079316       11.3896450238        0.0194998325
Ti        13.2710666385        5.5963362778        4.8504084937
Ti         5.7481406033       13.2036388291        4.7973079433
Ti        11.2680580030        3.7963986203       -0.0208758884
Ti        13.1626173965       11.3303648988        7.2721811620
Ti         3.7941294747        5.6314710969        2.3912684651
Ti         3.7784795763        7.5936501091        0.0154100625
Ti        13.2819628567        9.4375086684        4.8394526602
Ti         7.4990017291        5.6905405131        2.4065833569
Ti         9.4175471904       11.2082891607        7.1641076819
Ti        13.2962313330        7.5234545084        7.1830915693
Ti         3.8388365849        9.4327860877        2.3766238541
Ti         9.5016576909        5.5848612094        4.7435493116
Ti         7.5712306398       11.3480639389        0.0264463142
Ti        11.4021830849        9.4551615209        2.4260734179
Ti         5.6717833349        7.5616994081        7.2351492473
Ti         5.7583690727        9.4149253801        4.7763596544
Ti        11.3514462043        7.5907457507       -0.0137420100
Ti         9.4330356574        3.6860896151        7.1834415656
Ti         7.5475235476       13.3306239812        2.3801847054
Ti         7.4822352010        3.8047754407       -0.0487977219
Ti         9.4895570566       13.2303419667        4.7895095679
Ti         7.6114357986        7.5354789901       -0.0615314783
Ti         9.5183852078        9.4295638592        4.7751502775
Ti         7.6083997530        9.4335447817        2.3497539463
Ti         9.5114797723        7.4298409024        7.1630035948
O         0.0456976010        0.0758516298        2.0006800675
O         1.8019248973        1.9142630882        6.7794402258
O         0.0055247411        1.9495433999        4.3961380473
O         1.8154089503        0.1240107148        9.2063191390
O         1.8077982765       -0.0136149709        5.2639346610
O        -0.1079383335        1.9924863441        0.4415191249
O         1.8709953213        2.0274397100        2.7989657796
O        -0.0387087035       -0.0615678993        7.6328369528
O        -0.0892590815        3.8766177500        2.0482737282
O         1.9630980800       13.2320462752        6.8349354023
O        11.2925968912        1.8520441511        4.3713365520
O         5.5909192418        0.0146406176        9.2363331369
O         2.0342504721        3.7848249971        5.2108017119
O         0.0387393878       13.3571910857        0.4227492421
O         5.6449637845        1.9527055895        2.8156732050
O        11.3066015722        0.0591430705        7.5769925499
O         3.7125355644        0.0399006035        7.6623465883
O        13.2039208865        1.8909771376        2.8472580005
O        13.1917753078        0.0328826760        9.1797000165
O         3.7482996685        1.7246294732        4.4042147453
O         1.8577569897        5.6502855965        6.7979025196
O        -0.0157837536       11.4081648848        1.9225767170