     192
 i =        1, E =     -5782.1188951776
Ti        -0.0039386297        0.0146868720       -0.0061367698
Ti        -0.0080099920       -0.0034604653       -0.0160543227
Ti        -0.0063920044        0.0016205704       -0.0150831385
Ti        -0.0066075595        0.0090707816        0.0134056850
Ti        -0.0052437467       -0.0062797548        0.0142735421
Ti         0.0034720528        0.0027857403        0.0027701009
Ti         0.0037290088        0.0030906390       -0.0261194426
Ti         0.0000263708        0.0067811699        0.0044914194
Ti        -0.0002606085       -0.0127685292       -0.0056385862
Ti        -0.0116464045       -0.0034696052        0.0004341860
Ti        -0.0145824317        0.0022796325        0.0002670768
Ti        -0.0048156678       -0.0072768309       -0.0008443180
Ti        -0.0003666743       -0.0052329064       -0.0052709456
Ti         0.0143758747        0.0049915335        0.0229709843
Ti        -0.0142106224        0.0083071849        0.0085354044
Ti         0.0030090450        0.0207552505       -0.0137232662
Ti        -0.0016480998        0.0066567303       -0.0183389089
Ti        -0.0015548032       -0.0004791298       -0.0098618397
Ti         0.0066811893        0.0038782278        0.0045100481
Ti         0.0101655510        0.0072141937       -0.0169863463
Ti        -0.0093554952        0.0070737944       -0.0098332350
Ti        -0.0032365153       -0.0107134638       -0.0315128827
Ti        -0.0018519007       -0.0122686040       -0.0073800041
Ti        -0.0037058629        0.0080883423        0.0006086184
Ti        -0.0012213953       -0.0059224091        0.0096513181
Ti         0.0000838719       -0.0063398728        0.0124586645
Ti        -0.0000238470        0.0013135278        0.0088410240
Ti         0.0143011370        0.0074449997        0.0280543061
Ti         0.0151690553        0.0004384222        0.0057717346
Ti        -0.0105871314        0.0201145191       -0.0079198385
Ti         0.0064309245       -0.0074734656        0.0014669332
Ti        -0.0019239025       -0.0034176856        0.0117274039
Ti         0.0046926593        0.0024616967       -0.0116696783
Ti         0.0054102426        0.0172494940        0.0009418582
Ti         0.0152205271       -0.0087991440       -0.0084051442
Ti         0.0008790657        0.0029166452       -0.0118115217
Ti         0.0008545455        0.0021451743       -0.0018282645
Ti        -0.0034220834        0.0007253888        0.0008522165
Ti        -0.0053807957       -0.0024280449       -0.0160524794
Ti        -0.0108142058        0.0098494656        0.0007045962
Ti        -0.0093447689       -0.0069729512       -0.0060558012
Ti         0.0038731327        0.0135272864        0.0102750213
Ti         0.0079047612        0.0023230574        0.0002057835
Ti         0.0044739214        0.0077306884        0.0058370376
Ti         0.0020075499        0.0101352308       -0.0176501599
Ti         0.0007553054        0.0074295273       -0.0027433031
Ti         0.0027457864        0.0063394239       -0.0023471927
Ti        -0.0076927581        0.0281817147        0.0048938583
Ti        -0.0070518741        0.0001171500        0.0201191899
Ti        -0.0118613947        0.0057546713        0.0005331648
Ti        -0.0032725028        0.0017944986        0.0101601263
Ti         0.0092450077       -0.0000070836       -0.0146770684
Ti         0.0105013954        0.0054396898       -0.0063163179
Ti         0.0059241404       -0.0083805346        0.0054353120
Ti        -0.0125499826        0.0053541493        0.0018130606
Ti         0.0027050657        0.0082473881       -0.0066757925
Ti        -0.0043237364       -0.0022195306       -0.0019332831
Ti         0.0097380066       -0.0072798089       -0.0029167092
Ti         0.0102096832       -0.0026652838        0.0035152112
Ti        -0.0073993442       -0.0083493073        0.0095194116
Ti         0.0015406325        0.0026083359       -0.0046720790
Ti         0.0001840199        0.0008208585        0.0061528324
Ti        -0.0012981519        0.0052136361        0.0043432319
Ti        -0.0111598722        0.0061418279        0.0061779413
O         0.0012866404        0.0016115983       -0.0077923770
O         0.0099515697       -0.0020108494        0.0158207109
O         0.0161445738       -0.0034153736        0.0038715466
O         0.0036892469       -0.0032335556       -0.0047809228
O         0.0008979907        0.0000763888       -0.0063702432
O         0.0055594661       -0.0018908235       -0.0051538631
O         0.0041392567       -0.0112996687       -0.0008287214
O         0.0163553587       -0.0009898756        0.0047168473
O        -0.0030624342       -0.0037532527       -0.0055013623
O        -0.0005848579       -0.0173959592        0.0022298524
O        -0.0129894192       -0.0004465816        0.0172142896
O        -0.0186630011        0.0045784826       -0.0032722461
O        -0.0050222977        0.0104969961        0.0058182269
O         0.0012790750       -0.0035197429        0.0015722222
O         0.0015764145        0.0060251312       -0.0030773807
O         0.0075721861        0.0008243309        0.0023130395
O         0.0006812417       -0.0036632898       -0.0050898375
O        -0.0010019592        0.0030172039       -0.0078047685
O         0.0081458833        0.0086700721       -0.0079061416
O         0.0060896628        0.0008170468        0.0174082200
O        -0.0042452266        0.0095950515        0.0177595856
O        -0.0019890315       -0.0086461801        0.0032339282
O        -0.0061909495       -0.0106933030       -0.0001192639
O        -0.0014185437        0.0149645890        0.0035778014
O        -0.0003882356       -0.0049212225        0.0008252274
O        -0.0095355773       -0.0018669619        0.0191484042
O         0.0175293612        0.0043686512        0.0052905304
O         0.0030560327       -0.0018901518       -0.0054157965
O         0.0085706560       -0.0002924414       -0.0060181006
O        -0.0031089445       -0.0041467771       -0.0015193997
O         0.0041136314       -0.0057597690       -0.0099578884
O        -0.0030598388        0.0026395149       -0.0227843368
O        -0.0006619920       -0.0122472014       -0.0006842213
O         0.0054598969        0.0033980402       -0.0038551298
O         0.0111519447       -0.0008911191       -0.0082946159
O        -0.0136215101        0.0003005084        0.0037506937
O         0.0059412950        0.0102298583        0.0055839779
O         0.0005396461       -0.0050926186        0.0060768280
O        -0.0072728200       -0.0059442575       -0.0083973122
O        -0.0250777627        0.0023939543        0.0101857812
O        -0.0029459853       -0.0151432118        0.0072626501
O        -0.0033695522        0.0144396106       -0.0042551420
O         0.0067283137       -0.0019766398        0.0010377739
O         0.0034571193       -0.0008864610        0.0055911911
O        -0.0135818703       -0.0011464092        0.0058142652
O         0.0070184762        0.0054408616       -0.0104335279
O        -0.0079754009       -0.0006356862       -0.0071077155
O         0.0041725476       -0.0007736528        0.0009409251
O        -0.0078283088       -0.0078768027       -0.0061424125
O         0.0052444635       -0.0183322786        0.0041883316
O         0.0040612428       -0.0004445924        0.0035388906
O         0.0015587489       -0.0007096194       -0.0040069507
O        -0.0033060558       -0.0135273006        0.0007348077
O         0.0009719737        0.0005732696       -0.0105199765
O        -0.0151361244       -0.0048875943        0.0042276846
O         0.0013787093       -0.0003721266       -0.0014544069
O         0.0028135403        0.0117539146       -0.0057283461
O         0.0095207717       -0.0032020920        0.0014088032
O         0.0116801620        0.0002864245        0.0005493267
O         0.0036328705       -0.0041404703        0.0010863734
O        -0.0015906359        0.0004179911        0.0070367108
O        -0.0084025741       -0.0065133549        0.0066082513
O         0.0081134658        0.0011066024       -0.0002347242
O        -0.0099063642        0.0000566493       -0.0016416883
O        -0.0023147575        0.0054214299        0.0044266134
O         0.0111449495       -0.0194419432        0.0076108533
O         0.0010029004       -0.0009673645        0.0054144450
O        -0.0062420751        0.0016305237        0.0105590846
O         0.0048576975       -0.0042355302       -0.0016091957
O        -0.0073968957       -0.0050077516       -0.0034417141
O         0.0076259798       -0.0002380704       -0.0016076749
O         0.0055103894        0.0060936009        0.0126033123
O         0.0015053219       -0.0328759680        0.0036023711
O         0.0029441719       -0.0004024232        0.0009916902
O        -0.0025774117        0.0077149342       -0.0022718640
O         0.0056899473        0.0022760907        0.0022976504
O        -0.0028723854       -0.0130540301        0.0104322367
O         0.0005113672        0.0042400848       -0.0061356626
O         0.0210394633       -0.0037816920        0.0056034085
O        -0.0122179788       -0.0021601825        0.0030919401
O        -0.0025406466       -0.0107515141        0.0089862049
O        -0.0003221142       -0.0083613972        0.0098602235
O         0.0022068775       -0.0007964824        0.0038959441
O        -0.0064166368       -0.0015367755       -0.0089377242
O         0.0017972428       -0.0048351397       -0.0328414934
O         0.0000182157       -0.0041611345        0.0028119409
O        -0.0184423447       -0.0007924964       -0.0012055817
O         0.0064440354       -0.0025564515        0.0023927525
O         0.0036184530       -0.0030333925        0.0117563425
O        -0.0006269496       -0.0013802963        0.0049133697
O         0.0036545509        0.0010151780       -0.0021478467
O         0.0083541177        0.0022856447       -0.0064362134
O        -0.0116506306       -0.0022091796       -0.0025265101
O         0.0028896714        0.0047305742       -0.0080540402
O         0.0069118458        0.0042267834        0.0056953099
O        -0.0096346533       -0.0087069574       -0.0102897781
O         0.0037314683        0.0191509251       -0.0038485361
O         0.0081994563        0.0034397325        0.0077615758
O        -0.0014956582        0.0085356899       -0.0101149813
O         0.0004071373        0.0096982441        0.0003418578
O         0.0048590289        0.0003257519       -0.0003206319
O        -0.0081217836       -0.0034157880       -0.0074407064
O        -0.0025083620       -0.0070745355        0.0024414405
O         0.0008551887        0.0015713973        0.0031055936
O        -0.0039446536        0.0095123116       -0.0018065578
O        -0.0026365078       -0.0062710461        0.0044546147
O        -0.0078084837        0.0025680730        0.0051249121
O        -0.0034144946       -0.0054351397        0.0080240678
O        -0.0024818527        0.0053986938        0.0010809957
O         0.0016979206        0.0129991056        0.0032458910
O         0.0047768206        0.0028244035        0.0051582175
O         0.0232975116       -0.0019852130        0.0110112254
O        -0.0020316449        0.0043321871       -0.0011194353
O        -0.0124023767       -0.0019068147       -0.0002211530
O         0.0064889228       -0.0034858921       -0.0113812090
O        -0.0031270017       -0.0024132645        0.0081477015
O        -0.0072493812        0.0096853779        0.0003055235
O         0.0025865167        0.0002879988        0.0060187173
O         0.0070065292       -0.0013772885        0.0018785570
O        -0.0018524365        0.0070278060        0.0016809271
O        -0.0063691702       -0.0107372737        0.0038849830
O         0.0011015288       -0.0239066128       -0.0017757691
O         0.0229338881        0.0020835195        0.0016603831
O        -0.0077945683        0.0053808526       -0.0076811773
O         0.0041366855       -0.0038108731       -0.0069349846
O         0.0022324609       -0.0106324364        0.0015800283
O        -0.0214038530        0.0015285100       -0.0060215790
O        -0.0024458961       -0.0043934806        0.0036301216
     192
 i =        2, E =     -5782.2113510031
Ti        -0.0023120400        0.0036452996        0.0025903575
Ti         0.0012147165       -0.0037259035       -0.0045068996
Ti        -0.0036840295       -0.0015349869       -0.0114149020
Ti         0.0010405734        0.0168840534        0.0045764139
Ti         0.0025203371       -0.0032783779        0.0030497469
Ti        -0.0037513631        0.0061392588       -0.0048465418
Ti        -0.0006010479        0.0042145789       -0.0063168528
Ti         0.0003137333        0.0071817079        0.0062398731
Ti        -0.0050751029       -0.0085436827       -0.0025684354
Ti        -0.0010108575       -0.0016288484       -0.0035364131
Ti        -0.0074260079       -0.0000035976        0.0023215295
Ti         0.0019174773        0.0011118622       -0.0036883104
Ti         0.0046391261       -0.0039912254       -0.0038398541
Ti         0.0029614076        0.0069218767        0.0151211577
Ti        -0.0103385187        0.0079364679        0.0022675884
Ti        -0.0023367352        0.0142748674       -0.0103690602
Ti         0.0003924564        0.0036363737       -0.0107081720
Ti        -0.0018266471        0.0054279843       -0.0054693736
Ti         0.0092802884        0.0048153798        0.0030535597
Ti         0.0010066691       -0.0032179391       -0.0112723027
Ti        -0.0035874534        0.0074977300       -0.0111885841
Ti        -0.0050093133       -0.0096287081       -0.0107512810
Ti         0.0041160460       -0.0014366690        0.0042608654
Ti        -0.0079140231        0.0087129130       -0.0012589106
Ti        -0.0059664094       -0.0022888664        0.0066756305
Ti        -0.0071312978       -0.0023953789        0.0039874569
Ti         0.0012169977        0.0059651590       -0.0018780665
Ti         0.0001934976        0.0092974257        0.0065714137
Ti         0.0061526634        0.0051790273        0.0063800951
Ti        -0.0011554473        0.0167698657       -0.0039564032
Ti         0.0015079408       -0.0003113397        0.0026604552
Ti        -0.0064702596       -0.0019686469        0.0060646091
Ti         0.0120362587       -0.0005871938       -0.0089810817
Ti        -0.0052460267        0.0112256337       -0.0053554283
Ti         0.0073737857       -0.0037813084       -0.0041391879
Ti         0.0148278377       -0.0067364303       -0.0097252446
Ti         0.0014019654        0.0006154909        0.0067165342
Ti        -0.0021260890        0.0002693774        0.0033493764
Ti        -0.0067912506        0.0061293137       -0.0072947179
Ti        -0.0036144414        0.0096370564       -0.0024441842
Ti        -0.0095360257        0.0007400361        0.0027256555
Ti         0.0049512074        0.0075400581        0.0056286125
Ti         0.0102139643       -0.0009749112        0.0032726663
Ti        -0.0033603570        0.0037385397        0.0029089453
Ti        -0.0015292912       -0.0042003150       -0.0115027036
Ti         0.0000527972       -0.0003446187       -0.0024878717
Ti         0.0112518289        0.0026093033       -0.0071472653
Ti         0.0014144388        0.0129515028       -0.0010198899
Ti        -0.0022173835        0.0066447070        0.0159977200
Ti        -0.0076159345        0.0041892785        0.0030007006
Ti        -0.0077755845        0.0044825564        0.0061786059
Ti        -0.0029860881       -0.0055207335       -0.0009876252
Ti         0.0075487930        0.0021306062       -0.0051571357
Ti         0.0057439911       -0.0082752477       -0.0017341611
Ti        -0.0032802344       -0.0033717304        0.0036361574
Ti         0.0067229716        0.0079318296       -0.0045518138
Ti        -0.0076397241        0.0005226852       -0.0032176225
Ti         0.0088119034       -0.0104446387       -0.0001307889
Ti         0.0036169070        0.0056401466        0.0043551339
Ti        -0.0039173692       -0.0036446252        0.0050556945
Ti        -0.0024243115       -0.0022024322        0.0009289115
Ti        -0.0038264882       -0.0095873917        0.0003405025
Ti         0.0048658632        0.0027092609        0.0053669098
Ti        -0.0090534510        0.0065583547        0.0008441633
O        -0.0012617019        0.0117479186       -0.0007745497
O         0.0015057826        0.0011175248        0.0056909283
O         0.0027469967       -0.0033319770        0.0067049558
O         0.0074791840        0.0013262213        0.0006216435
O        -0.0013758654       -0.0035249212       -0.0045443937
O         0.0001485647       -0.0072251028        0.0039492049
O         0.0021418404       -0.0050084768       -0.0000180953
O         0.0076090053       -0.0012403175       -0.0017849344
O        -0.0019397580       -0.0053689618       -0.0038943422
O        -0.0022991484       -0.0121184586       -0.0001427357
O        -0.0058339378       -0.0007229983        0.0090837502
O        -0.0040879987       -0.0026342846       -0.0017765232
O        -0.0016875781        0.0008302291        0.0060330192
O        -0.0006747190       -0.0082822965       -0.0025336444
O         0.0052472319        0.0000067000       -0.0003911820
O         0.0012985715       -0.0030088074        0.0018510185
O         0.0036162084       -0.0048245150        0.0003476887
O         0.0046470748       -0.0021153526       -0.0049768932
O        -0.0013584165        0.0048697438        0.0001158956
O         0.0075478774        0.0040352916        0.0077545947
O         0.0001838148        0.0053014515        0.0084817286
O        -0.0025005778       -0.0063497605        0.0062058412
O        -0.0013034193       -0.0041822335       -0.0001492299
O        -0.0000431307        0.0072647265        0.0012197044
O        -0.0040200971       -0.0024878042        0.0049117008
O        -0.0031666378        0.0023410088        0.0071784818
O         0.0066727683       -0.0024651193        0.0002429998
O         0.0019928888       -0.0009705995        0.0000665085
O         0.0008480759        0.0041670763       -0.0075923241
O        -0.0067323351       -0.0005050780       -0.0009417099
O         0.0031154090       -0.0018528440       -0.0076118890
O         0.0013536263        0.0008893158       -0.0054805371
O         0.0010856338       -0.0146641073       -0.0011251239
O         0.0003305867        0.0030834842       -0.0025578036
O         0.0088500185       -0.0000004920       -0.0042253796
O        -0.0005629261       -0.0004988570        0.0017779980
O         0.0015649541       -0.0023949104        0.0024002619
O        -0.0004084684        0.0011526506        0.0049990576
O        -0.0092021399       -0.0005513870        0.0000879095
O        -0.0068072689        0.0002023995        0.0037583505
O        -0.0036798114       -0.0086584961        0.0076030514
O        -0.0036827961       -0.0029700606       -0.0036825512
O         0.0012464210        0.0054773572        0.0009576025
O        -0.0003804078       -0.0146505768        0.0021450179
O        -0.0042071499        0.0023452129       -0.0029906636
O        -0.0016199615       -0.0015383728        0.0002653398
O        -0.0023832939       -0.0009817589       -0.0061326670
O         0.0103340597       -0.0016857615        0.0018693956
O        -0.0039535032       -0.0152221758       -0.0048757464
O         0.0040666201       -0.0045607010       -0.0077270685
O         0.0028885732       -0.0006434486       -0.0054076515
O         0.0022066327       -0.0028188931       -0.0018066655
O         0.0015815639       -0.0158602483       -0.0007502538
O         0.0018442254       -0.0001298959       -0.0041561544
O        -0.0098028175       -0.0026115034        0.0032981592
O        -0.0046986961       -0.0003672855        0.0065314825
O         0.0026502608        0.0039181437        0.0041676358
O        -0.0015263950       -0.0000840079        0.0027071068
O         0.0051782299       -0.0047142286        0.0061834792
O        -0.0067582090       -0.0028536684       -0.0000816300
O         0.0024758554       -0.0027931507       -0.0036330025
O        -0.0048017223        0.0074715229       -0.0043740112
O        -0.0113495962       -0.0056082518        0.0043562513
O        -0.0079861674       -0.0036986513        0.0021702495
O        -0.0038010619        0.0032866040        0.0069675277
O         0.0060626538        0.0038939987       -0.0006123989
O        -0.0087623671        0.0018666298        0.0046808660
O         0.0025444036       -0.0003304503        0.0000506884
O        -0.0001411295       -0.0097493841        0.0032224037
O        -0.0038842747        0.0057314326       -0.0049879113
O         0.0044621736        0.0008064759       -0.0026924813
O        -0.0082389037       -0.0004126712        0.0037458103
O         0.0047345994       -0.0045420068        0.0015283688
O         0.0039433810        0.0033404808       -0.0032876986
O        -0.0061922358        0.0030680056       -0.0001305696
O         0.0009926293        0.0032264537        0.0048505294
O        -0.0028686870       -0.0089567143        0.0065297435
O        -0.0001875334       -0.0026441426        0.0028500522
O         0.0093914200       -0.0031281739        0.0003215533
O        -0.0078992215       -0.0017492877       -0.0014266168
O         0.0023114289       -0.0004593146        0.0030233627
O        -0.0016883749       -0.0103668753        0.0038545151
O        -0.0040883734        0.0026020596        0.0059794168
O        -0.0043045942        0.0003907307        0.0005096559
O         0.0014283314       -0.0004008234       -0.0192807170
O         0.0018673680       -0.0011212959        0.0033560355
O         0.0037327166        0.0029050426       -0.0028238656
O         0.0108566602        0.0000754224        0.0041910004
O        -0.0007574172        0.0054069060       -0.0052806196
O         0.0005927692        0.0009786154        0.0049144071
O        -0.0008904742        0.0046224306        0.0007882807
O         0.0004496266       -0.0113599903        0.0021036256
O         0.0021198591       -0.0030905248        0.0019800939
O         0.0072272939        0.0039808612       -0.0009650588
O         0.0027259647        0.0025527824        0.0015215538
O         0.0028594590       -0.0031202740       -0.0059257530
O        -0.0005762423        0.0108278904       -0.0053416982
O         0.0039550369       -0.0000810678        0.0017659928
O         0.0076697875        0.0013026132       -0.0074467131
O         0.0007318119        0.0005836748       -0.0022812508
O         0.0008188238       -0.0058163951       -0.0025985548
O        -0.0000618310       -0.0063185135       -0.0039783494
O         0.0090411111       -0.0029445825        0.0057676219
O         0.0018135993       -0.0031727578        0.0005278054
O        -0.0005855781       -0.0034440312       -0.0008080160
O        -0.0028377886       -0.0074649314       -0.0013192234
O        -0.0029145260        0.0053993180        0.0037421743
O        -0.0038899156       -0.0007823537        0.0023284944
O         0.0037173645       -0.0008357232        0.0035446273
O        -0.0002007317       -0.0007997816       -0.0015373425
O         0.0002359398        0.0013514523       -0.0013279847
O         0.0137407831       -0.0044559271       -0.0036554689
O        -0.0001732232        0.0030952534        0.0043054023
O        -0.0034987213       -0.0022948853        0.0012569919
O         0.0033475283        0.0000035279       -0.0001849745
O        -0.0062342976        0.0040753438        0.0065921830
O        -0.0010076531        0.0064301052        0.0017889741
O        -0.0041729066        0.0035621601       -0.0021832882
O         0.0029051336        0.0007549356       -0.0070400260
O        -0.0037926368        0.0102267878        0.0007346923
O        -0.0039057859        0.0029060349        0.0006549896
O        -0.0003174778       -0.0089506153       -0.0063525367
O         0.0103151879        0.0038367610        0.0013750848
O        -0.0012473053        0.0018252808        0.0015272893
O         0.0036495391        0.0001136765       -0.0034093366
O         0.0001589081       -0.0005584571        0.0011468296
O        -0.0081207307        0.0001896204       -0.0027898582
O         0.0001059985       -0.0003257967        0.0032780422
     192
 i =        3, E =     -5782.2484980791
Ti        -0.0022867385        0.0009949342        0.0024893919
Ti         0.0036044561       -0.0015498225       -0.0023658503
Ti        -0.0031647560       -0.0042564562       -0.0065201788
Ti         0.0003945693        0.0115967909        0.0008847621
Ti         0.0035818635        0.0014059413        0.0000156428
Ti        -0.0050344675        0.0039542858       -0.0037979542
Ti        -0.0033049088        0.0007643207       -0.0022395856
Ti         0.0001556864        0.0009351286        0.0035239722
Ti        -0.0042284088       -0.0029548131       -0.0014518991
Ti         0.0015133106       -0.0036922128       -0.0023820483
Ti        -0.0065382646       -0.0019188610       -0.0002363126
Ti         0.0018817646        0.0004323808       -0.0005694699
Ti         0.0057311883       -0.0057703430       -0.0035541822
Ti         0.0008108408        0.0064112149        0.0084740986
Ti        -0.0044617353        0.0013730411       -0.0017495120
Ti        -0.0014376553        0.0114422258       -0.0043160449
Ti        -0.0003110150        0.0016661692       -0.0043601205
Ti         0.0012347570        0.0054282501        0.0008422452
Ti         0.0084462081        0.0072425156       -0.0011633762
Ti         0.0025304903       -0.0050424404       -0.0057333136
Ti         0.0018316631       -0.0000529842       -0.0065872394
Ti        -0.0044127851       -0.0074292692       -0.0029836384
Ti         0.0044217533        0.0024345847        0.0053261690
Ti        -0.0083334914        0.0068782259       -0.0022746502
Ti        -0.0042102783       -0.0010101743        0.0048183094
Ti        -0.0076763689        0.0001191901       -0.0003554812
Ti         0.0045119549        0.0032981229       -0.0011359202
Ti        -0.0012134598        0.0045502382        0.0007678178
Ti         0.0020382919        0.0069815014        0.0030066771
Ti         0.0026213640        0.0084598611        0.0044829754
Ti        -0.0012010271        0.0025982277        0.0027142980
Ti        -0.0051609145       -0.0001206597        0.0027863652
Ti         0.0080846010        0.0006983908       -0.0041243776
Ti        -0.0046080248        0.0035550205       -0.0028426670
Ti         0.0034862887       -0.0017341415       -0.0063843996
Ti         0.0145185030       -0.0058902762       -0.0058895319
Ti        -0.0001577255        0.0000004240        0.0027802865
Ti        -0.0033953867       -0.0001057743        0.0049444060
Ti        -0.0055268869        0.0040802384       -0.0038842752
Ti        -0.0023474716        0.0104417393       -0.0021089954
Ti        -0.0080214942        0.0020750794        0.0054055681
Ti         0.0035065032        0.0065332920        0.0005380154
Ti         0.0054926390        0.0018408276       -0.0048839683
Ti        -0.0011853159        0.0054378380        0.0014966242
Ti         0.0005127601       -0.0040523008       -0.0059402880
Ti        -0.0043907870       -0.0017873383       -0.0018780863
Ti         0.0081013478        0.0024363018       -0.0046527343
Ti         0.0029124506        0.0077451753       -0.0008431843
Ti        -0.0015040311        0.0072955655        0.0062410498
Ti        -0.0024462084        0.0029975088       -0.0005702509
Ti        -0.0039240147        0.0067081201        0.0037428431
Ti        -0.0053717364       -0.0048707674        0.0020653184
Ti         0.0024338653        0.0012053510       -0.0021482444
Ti         0.0019425287       -0.0034852519       -0.0012336053
Ti        -0.0002853662       -0.0028800264        0.0030141211
Ti         0.0025042241        0.0045139932       -0.0011631390
Ti        -0.0023928993        0.0011442645       -0.0015669854
Ti         0.0061893500       -0.0118376839        0.0001605711
Ti         0.0021786072        0.0050336483        0.0041065520
Ti        -0.0041451828       -0.0017617883        0.0025154842
Ti        -0.0035972723        0.0012824788        0.0041414464
Ti        -0.0022442477       -0.0096232340        0.0011756179
Ti         0.0036878946        0.0009267853        0.0021690919
Ti        -0.0045984971        0.0050231467       -0.0009208567
O        -0.0007944341        0.0029241083        0.0024079500
O         0.0029597237       -0.0026621871        0.0044088889
O        -0.0045260934        0.0001278607        0.0038686519
O         0.0018769565        0.0020163296        0.0013831058
O         0.0020814050        0.0002307426       -0.0028195161
O         0.0011275204       -0.0037267705        0.0027346165
O         0.0029081680       -0.0018480276        0.0035098632
O         0.0047713182        0.0006149251       -0.0006463772
O         0.0029420760       -0.0056306719       -0.0012120322
O        -0.0028220331       -0.0041307374       -0.0009710328
O         0.0016801773        0.0001505951        0.0030094185
O         0.0030507745       -0.0010217564       -0.0009560899
O        -0.0040035368       -0.0012671837        0.0028086445
O        -0.0019543737       -0.0024845126       -0.0028153249
O         0.0035442334       -0.0046350710        0.0009235595
O         0.0034293783       -0.0011012346        0.0014283453
O         0.0007007327        0.0014895324       -0.0006818064
O         0.0037277918       -0.0008494546       -0.0023960347
O        -0.0029670505        0.0009902480        0.0009372105
O         0.0043272098        0.0036518431        0.0028940901
O         0.0013307500        0.0011194780        0.0033548049
O         0.0036697903       -0.0021421522        0.0048880689