     192
 i =        1, E =     -5775.2656827513
Ti         0.0006520514        0.0006500586        0.0000012585
Ti        -0.0008577318       -0.0008562911        0.0000004741
Ti         0.0006518177       -0.0008808579       -0.0006039544
Ti        -0.0008826901        0.0006533836        0.0006062797
Ti         0.0006570060       -0.0013344206        0.0002859153
Ti        -0.0008861325       -0.0007059931       -0.0006063575
Ti         0.0008398518       -0.0008613588        0.0000008758
Ti        -0.0003150892        0.0006612914        0.0004083587
Ti        -0.0008287078       -0.0013236055        0.0003103163
Ti         0.0006499801       -0.0006994209        0.0000021944
Ti        -0.0003216930       -0.0008082943        0.0001980872
Ti         0.0008636375        0.0006514700       -0.0006007584
Ti        -0.0013376842        0.0006585890       -0.0002818632
Ti        -0.0007026511       -0.0008829631        0.0006067724
Ti        -0.0007003280        0.0006499564       -0.0000042367
Ti        -0.0013245747       -0.0008318410       -0.0003121171
Ti        -0.0008112826       -0.0003216996       -0.0001939901
Ti         0.0006544110        0.0008647253        0.0006017687
Ti         0.0006596042       -0.0003158756       -0.0004059143
Ti        -0.0008648429        0.0008369328        0.0000003432
Ti         0.0006623014        0.0003662280        0.0004074529
Ti        -0.0008360076        0.0013410545       -0.0003129829
Ti         0.0003700426       -0.0008146968       -0.0001972246
Ti         0.0013498638        0.0006544216        0.0002813231
Ti        -0.0008128371        0.0003687892        0.0001953093
Ti         0.0006559651        0.0013498240       -0.0002788949
Ti         0.0013407939       -0.0008303893        0.0003146714
Ti         0.0003675509        0.0006602898       -0.0004063440
Ti        -0.0013060625       -0.0013044117       -0.0000000267
Ti        -0.0006984147       -0.0006997140        0.0000007827
Ti         0.0007911497       -0.0003177358        0.0001932535
Ti        -0.0003178246        0.0007904739       -0.0001949065
Ti        -0.0007022236       -0.0013393063       -0.0002894794
Ti        -0.0013374932       -0.0007035937        0.0002860482
Ti        -0.0003213661       -0.0003212346        0.0000013007
Ti         0.0008405725        0.0008425427        0.0000005107
Ti         0.0008627472       -0.0007009057        0.0006062887
Ti        -0.0003218610       -0.0012948712        0.0001027046
Ti        -0.0013275159        0.0008087264        0.0003142763
Ti        -0.0007044457       -0.0003146260        0.0004079072
Ti        -0.0003153525       -0.0007093193       -0.0004096945
Ti         0.0008101470       -0.0013254209       -0.0003087541
Ti        -0.0007010154        0.0008626579       -0.0006085729
Ti        -0.0012938104       -0.0003222687       -0.0001075953
Ti        -0.0012958349        0.0003703273        0.0001063988
Ti        -0.0007031401        0.0013512721        0.0002834770
Ti         0.0003715315       -0.0003156957        0.0000020921
Ti         0.0013397059        0.0008102670       -0.0003171191
Ti        -0.0007068497        0.0003685055       -0.0004133248
Ti        -0.0013057288        0.0013218670        0.0000008049
Ti         0.0013044560       -0.0003189255        0.0001133787
Ti         0.0003692995        0.0007923972        0.0001930911
Ti         0.0008093819        0.0013386038        0.0003164823
Ti        -0.0003191045        0.0003701198       -0.0000026350
Ti        -0.0003175239        0.0013037238       -0.0001103613
Ti         0.0007905458        0.0003707652       -0.0001918963
Ti         0.0013164971       -0.0013027131       -0.0000053179
Ti         0.0003690714       -0.0007055251        0.0004105634
Ti         0.0003709890       -0.0012932875       -0.0001095352
Ti         0.0013526390       -0.0007079266       -0.0002836504
Ti         0.0003705513        0.0003708461        0.0000005237
Ti         0.0013182033        0.0013177026       -0.0000013809
Ti         0.0003735079        0.0013031867        0.0001143969
Ti         0.0013053780        0.0003698034       -0.0001152792
O        -0.0001454181        0.0000708743       -0.0007658281
O         0.0005956560        0.0003384201       -0.0005926824
O         0.0000896103        0.0006397166       -0.0004338053
O         0.0003588439       -0.0001374324       -0.0008951637
O         0.0006449691        0.0000859837        0.0004348263
O        -0.0001395781        0.0003592764        0.0008954733
O         0.0003399535        0.0005997392        0.0005919565
O         0.0000651199       -0.0001516503        0.0007654570
O        -0.0001399010       -0.0006100377       -0.0007906881
O         0.0006469173       -0.0000933892       -0.0004315923
O        -0.0003566888        0.0006007243       -0.0005866293
O        -0.0001266925       -0.0001341792       -0.0009447117
O         0.0005230505       -0.0006096131        0.0004975749
O        -0.0001475240       -0.0000792308        0.0007644493
O        -0.0001275039        0.0005116612        0.0006590864
O        -0.0003803557       -0.0001420728        0.0008921209
O        -0.0006078909       -0.0001432021        0.0007867796
O        -0.0001006258        0.0006441696        0.0004308583
O        -0.0000765875       -0.0001423466       -0.0007673089
O        -0.0006071668        0.0005235777       -0.0005007341
O         0.0005027646       -0.0001241266       -0.0006564612
O        -0.0001376512       -0.0003789862       -0.0008908045
O        -0.0001416538       -0.0001286804        0.0009423187
O         0.0006088267       -0.0003607580        0.0005872815
O        -0.0001376403        0.0001444622       -0.0009418105
O         0.0005326793        0.0006004953       -0.0004938020
O         0.0001423616        0.0005039025       -0.0006546520
O         0.0006005656       -0.0001347459       -0.0007869925
O         0.0005089171        0.0001430430        0.0006538120
O        -0.0001420877        0.0005985651        0.0007848036
O         0.0005998120        0.0005314763        0.0004941470
O         0.0001417875       -0.0001413995        0.0009407527
O        -0.0005278050        0.0001123103       -0.0003607277
O         0.0001669628        0.0003628830       -0.0008963666
O         0.0001286777       -0.0006556887       -0.0003503995
O         0.0003393466       -0.0006088933       -0.0005987510
O         0.0001812697        0.0000691351        0.0007700137
O        -0.0005256013        0.0003250221        0.0005238838
O         0.0003281912       -0.0006531094        0.0004962948
O         0.0000889395       -0.0006615514        0.0004400588
O        -0.0006128000        0.0003379593        0.0005963020
O        -0.0006560098        0.0001254378        0.0003509151
O        -0.0006519704        0.0003305652       -0.0004955160
O        -0.0006635995        0.0000888349       -0.0004417750
O         0.0003260626       -0.0005261905       -0.0005243399
O         0.0000661890        0.0001817302       -0.0007728155
O         0.0001151295       -0.0005287252        0.0003620291
O         0.0003616986        0.0001656952        0.0008991462
O        -0.0005442670       -0.0005992616       -0.0004172937
O         0.0001807520       -0.0000757356       -0.0007638421
O        -0.0003466210       -0.0006521041       -0.0004910502
O        -0.0001279719       -0.0005148962       -0.0006585263
O         0.0001626739       -0.0006073913        0.0007927058
O        -0.0005236315       -0.0001284461        0.0003592965
O        -0.0001269424       -0.0006661766        0.0004513816
O        -0.0003606528       -0.0006203090        0.0005923995
O        -0.0006594501       -0.0001002557        0.0004385920
O        -0.0006616287       -0.0005974894        0.0003328429
O        -0.0006090840       -0.0005426812        0.0005011811
O        -0.0001360833       -0.0006563391        0.0003496791
O        -0.0006548823       -0.0001330504       -0.0003496922
O        -0.0005413481       -0.0006067763       -0.0005023492
O        -0.0000987692       -0.0006614533       -0.0004367860
O        -0.0005959028       -0.0006609388       -0.0003381773
O        -0.0006653082       -0.0001269959       -0.0004492083
O        -0.0006150196       -0.0003584318       -0.0005914772
O        -0.0001259537       -0.0005266315       -0.0003600712
O        -0.0006107209        0.0001710266       -0.0007932102
O        -0.0005191571       -0.0001282612        0.0006570206
O        -0.0006527714       -0.0003515498        0.0004929163
O        -0.0005995138       -0.0005434277        0.0004198667
O        -0.0000779734        0.0001744543        0.0007674401
O         0.0001700531       -0.0003827469        0.0008949212
O        -0.0005410447       -0.0001260212        0.0005717728
O        -0.0001261628        0.0001579149        0.0009448398
O        -0.0003449219       -0.0005266097        0.0005208066
O        -0.0005234393       -0.0003425379       -0.0005188405
O         0.0001576862       -0.0001258070       -0.0009455376
O        -0.0003807971        0.0001720929       -0.0008958208
O        -0.0001238584       -0.0005407994       -0.0005701695
O        -0.0005426780        0.0001420318       -0.0005684597
O         0.0001633428        0.0006024357       -0.0007859287
O         0.0001417233       -0.0006662903       -0.0004512148
O         0.0005985043       -0.0005401602       -0.0004971638
O         0.0001603416        0.0001406756        0.0009446650
O        -0.0005400062        0.0005861689        0.0004127261
O         0.0005856090       -0.0006624498        0.0003326319
O         0.0001439396       -0.0005226859        0.0006568138
O        -0.0005399195        0.0005962973        0.0004952682
O        -0.0006674535        0.0001429142        0.0004514086
O        -0.0006602814        0.0005904908       -0.0003331173
O        -0.0005178206        0.0001437194       -0.0006597210
O         0.0005907423       -0.0005399797       -0.0004129878
O         0.0001399838        0.0001678853       -0.0009444453
O         0.0001408997       -0.0005440215        0.0005705559
O         0.0006005168        0.0001619328        0.0007857572
O         0.0007075781        0.0001271379       -0.0003482446
O         0.0004760825        0.0003310832       -0.0005271849
O         0.0001075120        0.0004741355       -0.0003637801
O         0.0003269189        0.0007028799       -0.0004939397
O         0.0004746651        0.0001087426        0.0003628605
O         0.0007038296        0.0003257856        0.0004929294
O         0.0003319769        0.0004738328        0.0005274668
O         0.0001266608        0.0007086754        0.0003511509
O         0.0007129176       -0.0005957165       -0.0003342117
O         0.0004737978       -0.0001167559       -0.0003597824
O        -0.0003495857        0.0004753194       -0.0005229053
O        -0.0001285880        0.0007168104       -0.0004516769
O         0.0004931690       -0.0006035905        0.0004209953
O         0.0007063464       -0.0001416608        0.0003501950
O        -0.0001245457        0.0004959906        0.0005752334
O        -0.0003458132        0.0007040246        0.0004939585
O        -0.0005942152        0.0007152540        0.0003360872
O        -0.0001247061        0.0004727940        0.0003596007
O        -0.0001357064        0.0007056307       -0.0003476087
O        -0.0006033596        0.0004930302       -0.0004235781
O         0.0004950162       -0.0001221157       -0.0005750486
O         0.0007035460       -0.0003458976       -0.0004922379
O         0.0007178177       -0.0001296259        0.0004519637
O         0.0004755411       -0.0003494527        0.0005228438
O         0.0007168131        0.0001447722       -0.0004561889
O         0.0004927969        0.0005954027       -0.0004183716
O         0.0001390098        0.0004985003       -0.0005743341
O         0.0005841506        0.0007117190       -0.0003346028
O         0.0004977478        0.0001373424        0.0005755419
O         0.0007127337        0.0005837982        0.0003345329
O         0.0005920987        0.0004951967        0.0004193992
O         0.0001447202        0.0007177217        0.0004559607
     192
 i =        2, E =     -5775.2664446820
Ti         0.0001043471        0.0001047542       -0.0000003422
Ti        -0.0003010305       -0.0003029342       -0.0000002441
Ti         0.0000976069       -0.0002854105        0.0004880924
Ti        -0.0002864567        0.0000978391       -0.0004890727
Ti         0.0000979063       -0.0009633334        0.0001437071
Ti        -0.0002867898       -0.0000984756        0.0004806609
Ti         0.0002705145       -0.0003031105       -0.0000175732
Ti        -0.0007980531        0.0000907336       -0.0000680850
Ti        -0.0003171803       -0.0009687505       -0.0006243798
Ti         0.0001043011       -0.0001044218        0.0000094132
Ti        -0.0007923032       -0.0003337461       -0.0004296569
Ti         0.0002544311        0.0000982680        0.0005106108
Ti        -0.0009639152        0.0000962549       -0.0001421823
Ti        -0.0001006374       -0.0002866293       -0.0004809058
Ti        -0.0001044406        0.0001079164       -0.0000084375
Ti        -0.0009693713       -0.0003186415        0.0006272825
Ti        -0.0003354147       -0.0007933966        0.0004281807
Ti         0.0000979274        0.0002539339       -0.0005096271
Ti         0.0000910738       -0.0007983734        0.0000710054
Ti        -0.0003027091        0.0002706220        0.0000210165
Ti         0.0000894061        0.0008562549       -0.0000666134
Ti        -0.0003159462        0.0009388268        0.0006184492
Ti         0.0008503829       -0.0003357587        0.0004313753
Ti         0.0009314757        0.0000974949        0.0001347578
Ti        -0.0003344366        0.0008525410       -0.0004335611
Ti         0.0000957478        0.0009318401       -0.0001349669
Ti         0.0009389443       -0.0003156043       -0.0006184352
Ti         0.0008580600        0.0000901894        0.0000656500
Ti        -0.0009698969       -0.0009718278        0.0000000476
Ti        -0.0001052477       -0.0001052386       -0.0000015187
Ti         0.0003019321       -0.0007933281       -0.0004473782
Ti        -0.0007931890        0.0003037095        0.0004455915
Ti        -0.0001003720       -0.0009652513       -0.0001519062
Ti        -0.0009639320       -0.0000991990        0.0001519015
Ti        -0.0007918073       -0.0007935204       -0.0000011835
Ti         0.0002697520        0.0002695212       -0.0000000141
Ti         0.0002533006       -0.0000985438       -0.0004994317
Ti        -0.0007862393       -0.0009843698       -0.0001699357
Ti        -0.0009693742        0.0002846581       -0.0006447401
Ti        -0.0000954495       -0.0007973268       -0.0000638441
Ti        -0.0007996524       -0.0000950520        0.0000622439
Ti         0.0002861995       -0.0009702537        0.0006440400
Ti        -0.0000995703        0.0002552237        0.0004992468
Ti        -0.0009835331       -0.0007892950        0.0001677249
Ti        -0.0009840851        0.0008449533       -0.0001675730
Ti        -0.0001005157        0.0009330385        0.0001421706
Ti         0.0008514564       -0.0007908773        0.0000042816
Ti         0.0009380839        0.0002849378        0.0006359165
Ti        -0.0000959386        0.0008595029        0.0000571198
Ti        -0.0009706513        0.0009414710        0.0000116540
Ti         0.0009551199       -0.0007886639       -0.0001582961
Ti         0.0008492742        0.0003001774       -0.0004498382
Ti         0.0002863674        0.0009395198       -0.0006344971
Ti        -0.0007910281        0.0008538975       -0.0000027194
Ti        -0.0007898200        0.0009550497        0.0001611785
Ti         0.0003031541        0.0008492693        0.0004496765
Ti         0.0009404204       -0.0009659885       -0.0000091840
Ti         0.0008579698       -0.0000955855       -0.0000572758
Ti         0.0008464192       -0.0009836997        0.0001636725
Ti         0.0009320846       -0.0001021326       -0.0001426395
Ti         0.0008521680        0.0008487783       -0.0000011301
Ti         0.0009381762        0.0009391757       -0.0000004855
Ti         0.0008468996        0.0009540809       -0.0001556677
Ti         0.0009556818        0.0008467073        0.0001555383
O         0.0000952387        0.0002995524        0.0000411891
O         0.0000063142       -0.0001164813        0.0005102205
O         0.0002720202       -0.0000203915        0.0003551440
O        -0.0001114866        0.0000955559        0.0002137780
O        -0.0000213482        0.0002751974       -0.0003545185
O         0.0000944010       -0.0001091486       -0.0002130329
O        -0.0001107366        0.0000068229       -0.0005109388
O         0.0003001369        0.0000946609       -0.0000425900
O         0.0000909989        0.0002762347       -0.0004174540
O        -0.0000237634       -0.0002494053        0.0003662469
O         0.0001222898        0.0000022498        0.0005412202
O         0.0000609506        0.0000794334       -0.0002736649
O         0.0000409365        0.0002598592        0.0001059110
O         0.0000938898       -0.0002733227       -0.0000515251
O         0.0000571144        0.0000382827       -0.0000364087
O         0.0001214837        0.0000924665       -0.0002449175
O         0.0002804106        0.0000909379        0.0004153437
O        -0.0002500421       -0.0000210988       -0.0003676736
O        -0.0002758350        0.0000956981        0.0000523996
O         0.0002598380        0.0000385169       -0.0001058827
O         0.0000382278        0.0000607912        0.0000356673
O         0.0000952680        0.0001171105        0.0002445017
O         0.0000784178        0.0000583859        0.0002719491
O         0.0000012862        0.0001215964       -0.0005406227
O         0.0000796683       -0.0000655695       -0.0002805289
O         0.0000363852       -0.0002786685       -0.0000951101
O        -0.0000669228        0.0000360074        0.0000289133
O        -0.0002984138        0.0000916968       -0.0004061237
O         0.0000372269       -0.0000653634       -0.0000278379
O         0.0000922402       -0.0002961097        0.0004048973
O        -0.0002739460        0.0000395846        0.0000952240
O        -0.0000690317        0.0000776398        0.0002798667
O         0.0005752657        0.0002400144        0.0003962911
O        -0.0000955540       -0.0001086145        0.0002118286
O         0.0002281901       -0.0005550949        0.0005628868
O        -0.0001134942        0.0000180600        0.0005036415
O        -0.0000986527        0.0003010444       -0.0000373339
O         0.0005634691       -0.0001224365       -0.0005288393
O        -0.0001140633       -0.0005480426       -0.0006911588
O         0.0002792299        0.0000443181       -0.0003486576
O         0.0000183563       -0.0001109653       -0.0005027364
O        -0.0005546827        0.0002325244       -0.0005609514
O        -0.0005486120       -0.0001094826        0.0006900105
O         0.0000461775        0.0002723174        0.0003457749
O        -0.0001211623        0.0005641666        0.0005296665
O         0.0003021335       -0.0000990975        0.0000385591
O         0.0002403049        0.0005748274       -0.0003972401
O        -0.0001113153       -0.0000971337       -0.0002117827
O         0.0005455934        0.0002430648       -0.0001171555
O        -0.0000992475       -0.0002798112        0.0000519395
O         0.0001190517       -0.0005481299        0.0007221156
O         0.0000594935       -0.0000161407        0.0000290485
O        -0.0000885035        0.0002806048        0.0004198774
O         0.0005762434       -0.0002155824       -0.0004071261
O         0.0000659893       -0.0005678968       -0.0001945600
O         0.0001188194        0.0000201868       -0.0005337727
O         0.0000483286       -0.0002481837       -0.0003579161
O        -0.0005589510        0.0002518075       -0.0000569421
O         0.0002605611       -0.0000187947        0.0001132352
O        -0.0002024431       -0.0005551842       -0.0005721803
O        -0.0005539030       -0.0002105013        0.0005728025
O        -0.0000170246        0.0002640650       -0.0001148439
O        -0.0002498086        0.0000489700        0.0003590545
O         0.0002520950       -0.0005589900        0.0000574424
O        -0.0005687779        0.0000623152        0.0001945043
O         0.0000194975        0.0001190680        0.0005332765
O        -0.0002186177        0.0005754356        0.0004081164
O         0.0002811419       -0.0000904318       -0.0004211295
O        -0.0000168984        0.0000606522       -0.0000291355
O        -0.0005473756        0.0001215048       -0.0007218862
O         0.0002373730        0.0005468968        0.0001154538
O        -0.0002754958       -0.0000972269       -0.0000519200
O        -0.0000962834        0.0001194763       -0.0002407385
O         0.0005289209        0.0000606106        0.0000053487
O         0.0000600107       -0.0000784157        0.0002746119
O         0.0001271105        0.0005604907       -0.0005594544
O         0.0005617912        0.0001260756        0.0005591259
O        -0.0000763272        0.0000612207       -0.0002746316
O         0.0001205082       -0.0000957513        0.0002418116
O         0.0000611449        0.0005303516       -0.0000023422
O         0.0005291826       -0.0000694588       -0.0000116388
O        -0.0000913196       -0.0002983575       -0.0004071764
O        -0.0000736499       -0.0005679089        0.0001872330
O        -0.0002773076       -0.0000154225       -0.0001009961
O        -0.0000776134       -0.0000684539        0.0002833372
O         0.0005497490       -0.0002546985        0.0001026379
O        -0.0002702810       -0.0005582986       -0.0000705036
O        -0.0000658954       -0.0000179273       -0.0000208083
O        -0.0000182067       -0.0002799179        0.0001006928
O        -0.0005675693       -0.0000714185       -0.0001857881
O        -0.0005578924       -0.0002680876        0.0000697484
O        -0.0000182006       -0.0000677694        0.0000196727
O        -0.0002564777        0.0005517007       -0.0001015674
O        -0.0000692666       -0.0000789030       -0.0002840843
O        -0.0000663976        0.0005276690        0.0000114478
O        -0.0002971289       -0.0000930396        0.0004062634
O         0.0005298227        0.0002309549        0.0005642228
O        -0.0005638201       -0.0001252831        0.0005182030
O         0.0002443054       -0.0005765848        0.0003857203
O        -0.0001115089        0.0005248366        0.0006920845
O        -0.0005757160        0.0002461708       -0.0003849727
O         0.0005230493       -0.0001111825       -0.0006901207
O        -0.0001215358       -0.0005637453       -0.0005197588
O         0.0002304198        0.0005289122       -0.0005631599
O         0.0005337749        0.0002491620        0.0000546771
O        -0.0005763530       -0.0002219425        0.0003972292
O         0.0001288383       -0.0005632544        0.0005497631
O         0.0000650153        0.0005421777        0.0001888452
O        -0.0005504329        0.0002423698        0.0001238083
O         0.0005314779       -0.0002037302       -0.0005733476
O         0.0000605465       -0.0005299564        0.0000105529
O         0.0001185167        0.0005226411       -0.0007201333
O         0.0002517969        0.0005326460       -0.0000538975
O        -0.0002227465       -0.0005773779       -0.0003969312
O        -0.0002036779        0.0005309332        0.0005753614
O         0.0002434449       -0.0005508003       -0.0001258066
O        -0.0005307858        0.0000609533       -0.0000110295
O         0.0005235622        0.0001178619        0.0007214908
O         0.0005414768        0.0000644614       -0.0001885067
O        -0.0005625591        0.0001354014       -0.0005498601
O         0.0005411306       -0.0000716654        0.0001798302
O        -0.0005518254       -0.0002586131       -0.0001116784
O        -0.0000666943       -0.0005309887       -0.0000177657
O        -0.0002692813        0.0005336174        0.0000686193
O        -0.0005297633       -0.0000691822        0.0000183290
O         0.0005329490       -0.0002656563       -0.0000684774
O        -0.0002578769       -0.0005515094        0.0001112959
O        -0.0000740049        0.0005413734       -0.0001789508
     192
 i =        3, E =     -5775.2667102552
Ti         0.0001759907        0.0001766432        0.0000001080
Ti        -0.0000197054       -0.0000211657        0.0000006086
Ti         0.0001702866       -0.0000163443        0.0002708323
Ti        -0.0000178903        0.0001709953       -0.0002727691
Ti         0.0001688253       -0.0000536006        0.0003347146
Ti        -0.0000183579       -0.0001629790        0.0002633504
Ti         0.0000220224       -0.0000210090       -0.0000223681
Ti        -0.0003607307        0.0001626683        0.0004510327
Ti        -0.0000216149       -0.0000608158       -0.0005965910
Ti         0.0001771439       -0.0001706397        0.0000077975
Ti        -0.0003655479       -0.0000300331       -0.0007149957
Ti         0.0000196164        0.0001695949        0.0002949379
Ti        -0.0000536651        0.0001686663       -0.0003330180
Ti        -0.0001636165       -0.0000175908       -0.0002628424
Ti        -0.0001712967        0.0001783649       -0.0000079640
Ti        -0.0000613075       -0.0000221470        0.0005979261
Ti        -0.0000302454       -0.0003657821        0.0007151250
Ti         0.0001701724        0.0000179618       -0.0002939311
Ti         0.0001627913       -0.0003615891       -0.0004501695
Ti        -0.0000221147        0.0000215006        0.0000229387
Ti         0.0001613271        0.0003651555        0.0004454977
Ti        -0.0000223651        0.0000437506        0.0005766425
Ti         0.0003685318       -0.0000290048        0.0007093145
Ti         0.0000369906        0.0001693795        0.0003125867
Ti        -0.0000299232        0.0003694383       -0.0007115071
Ti         0.0001696911        0.0000368316       -0.0003140048
Ti         0.0000437644       -0.0000223841       -0.0005758281
Ti         0.0003655804        0.0001617151       -0.0004467107
Ti        -0.0000669557       -0.0000671057        0.0000005057
Ti        -0.0001722325       -0.0001714733        0.0000001580
Ti         0.0000286720       -0.0003663928       -0.0007378269
Ti        -0.0003651862        0.0000305492        0.0007365298
Ti        -0.0001616928       -0.0000552176       -0.0003429168
Ti        -0.0000540025       -0.0001616762        0.0003428377
Ti        -0.0003891859       -0.0003893133       -0.0000005130
Ti         0.0000210115        0.0000218152       -0.0000002411
Ti         0.0000189799       -0.0001631172       -0.0002857471
Ti        -0.0003760621       -0.0000774527        0.0001346190
Ti        -0.0000600712        0.0000207671       -0.0006188588
Ti        -0.0001553971       -0.0003607206        0.0004587644
Ti        -0.0003610871       -0.0001561972       -0.0004591264
Ti         0.0000225615       -0.0000614853        0.0006197498
Ti        -0.0001642718        0.0000204932        0.0002847311
Ti        -0.0000769654       -0.0003772289       -0.0001364068
Ti        -0.0000760660        0.0003789458        0.0001283968
Ti        -0.0001629296        0.0000377591        0.0003213401
Ti         0.0003919259       -0.0003888167       -0.0000075348
Ti         0.0000443863        0.0000238531        0.0005987853
Ti        -0.0001556199        0.0003653148       -0.0004550587
Ti        -0.0000676123        0.0000510403        0.0000215651
Ti         0.0000618373       -0.0003758483        0.0001555585
Ti         0.0003680290        0.0000273285       -0.0007311609
Ti         0.0000231261        0.0000449333       -0.0005983065
Ti        -0.0003884540        0.0003928723        0.0000075330
Ti        -0.0003772680        0.0000616191       -0.0001553208
Ti         0.0000288470        0.0003684397        0.0007316850
Ti         0.0000508537       -0.0000662234       -0.0000200439
Ti         0.0003647460       -0.0001571260        0.0004549922
Ti         0.0003794641       -0.0000757001       -0.0001285736
Ti         0.0000375209       -0.0001642624       -0.0003203005
Ti         0.0003920530        0.0003907428       -0.0000004572
Ti         0.0000508141        0.0000509007       -0.0000001238
Ti         0.0003782836        0.0000612542        0.0001483334
Ti         0.0000616616        0.0003791336       -0.0001489693
O        -0.0000800935       -0.0001281055        0.0002724663
O        -0.0000304253        0.0000490742        0.0006314022
O        -0.0001329714       -0.0000230268        0.0002469469
O         0.0000659131       -0.0000813981        0.0006391370
O        -0.0000236998       -0.0001322313       -0.0002478194
O        -0.0000807539        0.0000655116       -0.0006391937
O         0.0000507917       -0.0000314188       -0.0006308045
O        -0.0001279781       -0.0000788441       -0.0002723486
O        -0.0000766106        0.0001239491       -0.0000652740
O        -0.0000229541        0.0001470037        0.0002466860
O        -0.0000419238       -0.0000298713        0.0006471971
O         0.0001719551       -0.0000717253        0.0000125764
O        -0.0000296926        0.0001162550        0.0001154115
O        -0.0000794579        0.0001436416       -0.0002704725
O         0.0001656596       -0.0000227132        0.0000669550
O        -0.0000577004       -0.0000797689       -0.0006549152
O         0.0001255376       -0.0000767801        0.0000653871
O         0.0001463945       -0.0000231009       -0.0002470237
O         0.0001438821       -0.0000799642        0.0002707130
O         0.0001158679       -0.0000297021       -0.0001154733
O        -0.0000211680        0.0001674380       -0.0000674682
O        -0.0000818849       -0.0000593765        0.0006546523