     192
 i =        1, E =     -5775.2656827513
Ti        -0.0007051764       -0.0007056083       -0.0000012343
Ti         1.8926231992        1.8926356875        4.8075090563
Ti        -0.0006838716        1.8926371639        2.4026414414
Ti         1.8926489606       -0.0006920351        7.2123709674
Ti        -0.0006584369        3.7811536713        0.0016765255
Ti         1.8926626142       13.2394882677        4.8063876029
Ti        11.3462082887        1.8926323529        2.4037194311
Ti         5.6738486025       -0.0006643685        7.2133494825
Ti         1.8926005082        3.7811660905        7.2107054479
Ti        -0.0007065349       13.2394976520        2.4037726774
Ti         5.6738572009        1.8925920548        4.8065329351
Ti        11.3461863707       -0.0006779788       -0.0010883381
Ti         3.7811536864       -0.0006478573       -0.0016787522
Ti        13.2394785393        1.8926414077        4.8086308988
Ti        13.2395090739       -0.0007223941        7.2112617723
Ti         3.7811748500        1.8926147975        2.4043193716
Ti         1.8925911093        5.6738618022        4.8084791787
Ti        -0.0006854271       11.3461945717        0.0010858195
Ti        -0.0006564806        5.6738496150        2.4016633656
Ti         1.8926435130       11.3462032035        7.2112956758
Ti        -0.0006522990        7.5651076581        0.0020713580
Ti         1.8926248328        9.4577356402        4.8080427563
Ti         7.5651032790        1.8926023514        2.4047192519
Ti         9.4577604022       -0.0006735017        7.2129231959
Ti         1.8925951091        7.5650927017        7.2103095008
Ti        -0.0006599532        9.4577576270        2.4021027298
Ti         9.4577346040        1.8926152067        4.8069776473
Ti         7.5650956353       -0.0006372819       -0.0020746677
Ti         3.7811757162        3.7811881941       -0.0000015647
Ti        13.2395079973       13.2395051576        4.8075057945
Ti        11.3462540271        5.6738526402        2.4027592874
Ti         5.6738591388       11.3462354233        7.2122649957
Ti        13.2394510802        3.7811467954        7.2095871237
Ti         3.7811554950       13.2394561288        2.4054435605
Ti         5.6738565822        5.6738570987        4.8075057492
Ti        11.3462119641       11.3462130574       -0.0000016559
Ti        11.3461903843       13.2394792926        2.4048496197
Ti         5.6738511032        3.7811681959        7.2116873920
Ti         3.7811826010       11.3462550885       -0.0005946011
Ti        13.2394512387        5.6738432426        4.8096105183
Ti         5.6738615786       13.2394614240        4.8054194896
Ti        11.3462309284        3.7811832577        0.0005857549
Ti        13.2394859783       11.3461783468        7.2101723251
Ti         3.7811692467        5.6738576321        2.4033474733
Ti         3.7811799762        7.5651176299        0.0004074610
Ti        13.2394725150        9.4577552076        4.8091731387
Ti         7.5651034995        5.6738442343        2.4037417005
Ti         9.4577386018       11.3462212276        7.2118311476
Ti        13.2394534681        7.5650881402        7.2091897675
Ti         3.7811729275        9.4577282685        2.4037862379
Ti         9.4577460135        5.6738625573        4.8079464125
Ti         7.5651083653       11.3462655815       -0.0009843549
Ti        11.3462374150        9.4577357395        2.4031918055
Ti         5.6738422677        7.5650914829        7.2112768956
Ti         5.6738630716        9.4577487209        4.8070688212
Ti        11.3462502232        7.5651059925        0.0009826612
Ti         9.4577319550        3.7811552720        7.2112419894
Ti         7.5650971377       13.2394588766        2.4058305715
Ti         7.5650969075        3.7811824407       -0.0004002088
Ti         9.4577594578       13.2394781538        4.8058515830
Ti         7.5651037638        7.5651138666        0.0000015810
Ti         9.4577468797        9.4577469434        4.8075110887
Ti         7.5650952759        9.4577426320        2.4041730128
Ti         9.4577319576        7.5650889247        7.2108454462
O         0.0012591574        0.0025697581        1.9896191657
O         1.8839963597        1.8897314426        6.7952553437
O         0.0025480564        1.8838087362        4.3925255693
O         1.8896744540        0.0012366560        9.1997984338
O         1.8837877625        0.0025557736        5.2224926623
O         0.0012496585        1.8896712930        0.4152179608
O         1.8897253651        1.8839760905        2.8197678150
O         0.0025843768        0.0012893947        7.6254028181
O         0.0012450857        3.7816170070        1.9895417519
O         1.8837852260       13.2361966457        6.7962693228
O        11.3490856597        1.8839823192        4.3914648644
O         5.6727690454        0.0012277795        9.2011653034
O         1.8842254219        3.7816382154        5.2224286742
O         0.0012729870       13.2361747735        0.4141432625
O         5.6727896434        1.8842717575        2.8182798513
O        11.3491509912        0.0012659756        7.6265064425
O         3.7816126266        0.0012626194        7.6254862357
O        13.2362087176        1.8837895080        2.8187544337
O        13.2361737013        0.0012409691        9.2008854747
O         3.7816320252        1.8842322325        4.3926003627
O         1.8843135647        5.6727757090        6.7967344966
O         0.0012394950       11.3491521247        1.9885133825
O         0.0012638747        5.6727787610        0.4138587350
O         1.8839476980       11.3490987974        5.2235488201
O         0.0012438170        7.5662118870        1.9898800662
O         1.8841974069        9.4572741524        6.7963263089
O         7.5662098944        1.8843172037        4.3929639627
O         9.4572894568        0.0012192831        9.2007937085
O         1.8842904355        7.5662050186        5.2220606372
O         0.0012546379        9.4572905621        0.4142372876
O         9.4572681592        1.8841933125        2.8186905151
O         7.5662205695        0.0012667357        7.6251428513
O         3.7745012598        0.0025300476        1.9883028570
O        13.2372121980        1.8896629401        6.7960371466
O         0.0025087923        5.6703355533        4.3917574065
O         1.8897307102       11.3546695708        9.1990409295
O        13.2371667459        0.0025742136        5.2216417771
O         3.7745849771        1.8897940748        0.4164027570
O         1.8898020303        5.6703345410        2.8204145601
O         0.0025485355       11.3548983582        7.6262256944
O        11.3546888947        1.8897309069        0.4159787020
O         5.6703198451        0.0025159785        5.2232528544
O         5.6703465242        1.8897898578        6.7946008364
O        11.3549029399        0.0025509615        1.9888035051
O         1.8897892308        3.7745867789        9.1986195564
O         0.0025828333       13.2371656839        4.3933853856
O         0.0025213417        3.7745056789        7.6267157687
O         1.8896733603       13.2372230502        2.8189782692
O         3.7747109691        3.7816501890        1.9885798372
O        13.2371714088       13.2361760822        6.7971047379
O        11.3490293631        5.6703432307        4.3908104408
O         5.6727892135       11.3543502745        9.2005024052
O        13.2372293154        3.7816087625        5.2217291282
O         3.7744769879       13.2362392909        0.4154619910
O         5.6727824235        5.6703428316        2.8186420846
O        11.3491012754       11.3547204322        7.6272756175
O        11.3548777843       13.2362054527        0.4149620487
O         5.6703373030        3.7816509259        5.2228912247
O         3.7816395049       11.3544756256        7.6261622067
O        13.2362399771        5.6703258334        2.8195075336
O         5.6703275584       13.2362408224        6.7955126732
O        11.3544634085        3.7816235916        1.9888589554
O        13.2362033408       11.3548842297        9.2000550177
O         3.7816468173        5.6703431264        4.3921505740
O         5.6703501276        5.6727903273        6.7963733725
O        11.3546966694       11.3490984133        1.9877438143
O        13.2362356496        3.7744922488        9.1995642387
O         3.7816225711       13.2371956365        4.3932981839
O        11.3543725179        5.6727836916        0.4145254172
O         5.6703208324       11.3490361957        5.2242088488
O         3.7816538433        3.7747040425        7.6264361524
O        13.2361753620       13.2371957100        2.8179018449
O        13.2372004094       11.3491533810        5.2227540324
O         3.7747236228        5.6727975777        0.4147249412
O         5.6727743126       13.2372488524        2.8176240012
O        11.3490379735        3.7745993706        7.6276949359
O         3.7745818882       11.3490359639        1.9873227300
O        13.2372451325        5.6727638106        6.7974036153
O        11.3491482984       13.2371880586        4.3922694132
O         5.6727875514        3.7747182881        9.2002972673
O         3.7747313219        7.5662010138        1.9890153568
O        13.2372318617        9.4572860076        6.7970222858
O         7.5662114208        5.6703498777        4.3926042659
O         9.4572755783       11.3544529408        9.2001009037
O        13.2372334022        7.5662151385        5.2213908255
O         3.7746761091        9.4572667224        0.4152115923
O         9.4572621686        5.6703508499        2.8191600800
O         7.5662061767       11.3543949067        7.6257989439
O        11.3544608693        9.4572798486        0.4149267937
O         5.6703261995        7.5662054349        5.2224084338
O         5.6703599098        9.4572488662        6.7958585895
O        11.3543721008        7.5662087408        1.9892302761
O         9.4572535742        3.7746706117        9.1998139580
O         7.5662232378       13.2371999795        4.3936341974
O         7.5661965835        3.7747442708        7.6260047152
O         9.4572868983       13.2372442853        2.8180016617
O         7.5689209801        0.0025155488        1.9880142030
O         9.4643516701        1.8897765352        6.7948756792
O         0.0025400008        9.4644571629        4.3920692584
O         1.8898034163        7.5688700392        9.1983648094
O         9.4644526423        0.0025353110        5.2229575220
O         7.5688964059        1.8898092263        0.4166563282
O         1.8897764742        9.4643622525        2.8201476680
O         0.0025150575        7.5689417721        7.6269926246
O         7.5688804084        3.7816526466        1.9883896704
O         9.4644613792       13.2362230607        6.7958096656
O        11.3490506387        9.4643534536        4.3910873576
O         5.6727905080        7.5688791564        9.2001380014
O         9.4642488091        3.7816539984        5.2226923253
O         7.5689033551       13.2362523132        0.4157299122
O         5.6727846402        9.4641973734        2.8184831210
O        11.3490261122        7.5689138478        7.6279399518
O         3.7816473654        7.5688994676        7.6266264990
O        13.2362395430        9.4644675770        2.8192136817
O        13.2362400141        7.5688961195        9.1992759066
O         3.7816544438        9.4642507236        4.3923399070
O         9.4642046252        5.6727795726        6.7965338644
O         7.5688998706       11.3490304836        1.9870696505
O         7.5688919824        5.6727949813        0.4148826491
O         9.4643509477       11.3490442857        5.2239378556
O         7.5688915161        7.5661963522        1.9888686605
O         9.4642542459        9.4572505640        6.7960672930
O         7.5662002586        9.4641868108        4.3927600246
O         9.4572629714        7.5688795112        9.1996274840
O         9.4641854814        7.5662123087        5.2222549654
O         7.5688863952        9.4572580661        0.4153934899
O         9.4572568772        9.4642427981        2.8189543146
O         7.5661986507        7.5688960691        7.6261547509
     192
 i =        2, E =     -5775.2664446820
Ti         0.0007428536        0.0007385247        0.0000015401
Ti         1.8897283733        1.8897352299        4.8075086400
Ti         0.0007223398        1.8896554671        2.4017099562
Ti         1.8896597796        0.0007211969        7.2133090529
Ti         0.0007183393        3.7782097545        0.0027904656
Ti         1.8896680695       13.2378733545        4.8054411395
Ti        11.3490078123        1.8897314665        2.4036849904
Ti         5.6725931066        0.0006906633        7.2154341860
Ti         1.8898163479        3.7782396548        7.2104966836
Ti         0.0007396987       13.2378577096        2.4037838747
Ti         5.6726131927        1.8898133395        4.8053977488
Ti        11.3490800281        0.0007257046       -0.0019863358
Ti         3.7782077798        0.0007319310       -0.0027888437
Ti        13.2378765505        1.8896556536        4.8095811343
Ti        13.2378606449        0.0007225583        7.2112412828
Ti         3.7782485228        1.8898249410        2.4045188876
Ti         1.8898191778        5.6726180847        4.8096253896
Ti         0.0007262567       11.3490847519        0.0019847037
Ti         0.0006932601        5.6725946981        2.3995775049
Ti         1.8897363157       11.3490058961        7.2113256984
Ti         0.0007005024        7.5665210863        0.0041358865
Ti         1.8898206392        9.4606962854        4.8081978474
Ti         7.5665016506        1.8898271073        2.4058343819
Ti         9.4607361599        0.0007141399        7.2139826403
Ti         1.8898190316        7.5664913372        7.2091913685
Ti         0.0007252051        9.4607364225        2.4010463014
Ti         9.4606998223        1.8898158629        4.8068249730
Ti         7.5665106011        0.0007081731       -0.0041345576
Ti         3.7782843996        3.7783014586        0.0000021553
Ti        13.2378655702       13.2378605006        4.8075125896
Ti        11.3489363645        5.6726165037        2.4015763996
Ti         5.6726191223       11.3489203186        7.2134477477
Ti        13.2378828409        3.7782007377        7.2084569679
Ti         3.7782120739       13.2378880732        2.4065706672
Ti         5.6726297484        5.6726339291        4.8075093889
Ti        11.3490182338       11.3490195658        0.0000002625
Ti        11.3490831777       13.2378757976        2.4057644602
Ti         5.6726287573        3.7782532212        7.2125214186
Ti         3.7782470469       11.3489417077       -0.0008294790
Ti        13.2379157664        5.6725858002        4.8117091019
Ti         5.6726023796       13.2379076947        4.8033181738
Ti        11.3489210985        3.7782495396        0.0008305449
Ti        13.2378795430       11.3490681555        7.2092547739
Ti         3.7782529615        5.6726404572        2.4025020827
Ti         3.7782616142        7.5664865740        0.0012304632
Ti        13.2378899977        9.4607280960        4.8102495069
Ti         7.5664838376        5.6726327275        2.4037219355
Ti         9.4607055774       11.3489223191        7.2120138150
Ti        13.2379098822        7.5665040291        7.2071087742
Ti         3.7782895374        9.4606599288        2.4038281051
Ti         9.4606903266        5.6726410023        4.8088445734
Ti         7.5665066590       11.3489440930       -0.0021462102
Ti        11.3489305378        9.4607005454        2.4030032024
Ti         5.6726249913        7.5664723554        7.2112956418
Ti         5.6726419095        9.4606861087        4.8061705678
Ti        11.3489273496        7.5665062353        0.0021418181
Ti         9.4606503494        3.7782733768        7.2111891433
Ti         7.5665158363       13.2379176085        2.4079105999
Ti         7.5664697707        3.7782670297       -0.0012213148
Ti         9.4607395375       13.2378905451        4.8047745577
Ti         7.5664777241        7.5664920241        0.0000017096
Ti         9.4606657413        9.4606594252        4.8075106820
Ti         7.5664759075        9.4606887621        2.4050518359
Ti         9.4606779769        7.5664697470        7.2099661181
O         0.0008411678        0.0011914773        1.9866897546
O         1.8850094336        1.8889995467        6.7914953075
O         0.0012404244        1.8850323395        4.3897170676
O         1.8889567633        0.0008607023        9.1959671159
O         1.8850371410        0.0012356183        5.2253069364
O         0.0008647697        1.8889526029        0.4190525492
O         1.8889890905        1.8850078009        2.8235262455
O         0.0011922359        0.0008426400        7.6283355059
O         0.0008585490        3.7783309721        1.9873655790
O         1.8850460926       13.2373387051        6.7934425803
O        11.3497112844        1.8850226892        4.3876665884
O         5.6715172649        0.0008721702        9.1995315261
O         1.8848581224        3.7783987367        5.2245253424
O         0.0008467779       13.2373776395        0.4170918569
O         5.6715498357        1.8848488484        2.8198596893
O        11.3497487289        0.0008710993        7.6303842609
O         3.7783233156        0.0008617044        7.6276585735
O        13.2373396569        1.8850343956        2.8215856023
O        13.2373841803        0.0008357706        9.1979240758
O         3.7783983878        1.8848710534        4.3904912046
O         1.8848491908        5.6715378004        6.7951672753
O         0.0008632358       11.3497575125        1.9846405240
O         0.0008736484        5.6715271150        0.4154907019
O         1.8850269492       11.3497151877        5.2273472694
O         0.0008718839        7.5676054597        1.9882176059
O         1.8848813714        9.4605387908        6.7941716443
O         7.5675928597        1.8848616308        4.3913627061
O         9.4606091495        0.0008561668        9.1985602392
O         1.8848568486        7.5675860185        5.2236591346
O         0.0008578241        9.4606033767        0.4164705956
O         9.4605260820        1.8848680636        2.8208471824
O         7.5676132147        0.0008792792        7.6268078617
O         3.7678946574        0.0013119263        1.9856553071
O        13.2376073287        1.8889480317        6.7922021769
O         0.0013242830        5.6647521510        4.3885934854
O         1.8889931695       11.3534834613        9.1952824485
O        13.2376358836        0.0011897864        5.2245720280
O         3.7680272774        1.8890728600        0.4199918927
O         1.8890604832        5.6647662524        2.8244513975
O         0.0012286294       11.3534620650        7.6290310007
O        11.3534850186        1.8889867127        0.4197268124
O         5.6647283128        0.0013160849        5.2264122148
O         5.6647902971        1.8890489586        6.7905705140
O        11.3534550259        0.0012388790        1.9859988471
O         1.8890671749        3.7680261322        9.1950231777
O         0.0011903066       13.2376372748        4.3904397919
O         0.0013097148        3.7678947938        7.6293669048
O         1.8889584029       13.2376140601        2.8228188913
O         3.7680813499        3.7784998579        1.9867029836
O        13.2376390212       13.2373887357        6.7941571064
O        11.3496635682        5.6647851441        4.3867315047
O         5.6715406839       11.3536478564        9.1989470881
O        13.2376012102        3.7783211322        5.2239034586
O         3.7678879439       13.2372712270        0.4181268832
O         5.6715553967        5.6646906308        2.8201339983
O        11.3497248293       11.3534801431        7.6310675955
O        11.3534471676       13.2373356921        0.4177866374
O         5.6647133885        3.7785068362        5.2250015586
O         3.7783978856       11.3536419892        7.6282532737
O        13.2372546963        5.6647345248        2.8226875878
O         5.6647465105       13.2372673520        6.7923290181
O        11.3536337618        3.7783859868        1.9867732238
O        13.2373393500       11.3534432035        9.1972325027
O         3.7785032197        5.6647260527        4.3900230664
O         5.6647062690        5.6715697180        6.7948912270
O        11.3534812591       11.3497250667        1.9839575411
O        13.2372739790        3.7678897270        9.1968920276
O         3.7783242332       13.2376083793        4.3911212262
O        11.3536511175        5.6715365603        0.4160774740
O         5.6647498422       11.3496548064        5.2282925497
O         3.7785093174        3.7680772097        7.6283243169
O        13.2373831352       13.2376319301        2.8208621817
O        13.2376111672       11.3497500605        5.2266296857
O         3.7681192270        5.6715773610        0.4160836428
O         5.6715272769       13.2375970178        2.8192571451
O        11.3496498830        3.7680406261        7.6313333286
O         3.7680370134       11.3496563157        1.9836926423
O        13.2375904744        5.6715137942        6.7957680436
O        11.3497502943       13.2376071774        4.3883894913
O         5.6715699840        3.7681135269        9.1989343577
O         3.7681194015        7.5675642388        1.9876319201
O        13.2376090067        9.4606081176        6.7947909043
O         7.5675725679        5.6646998712        4.3910823438
O         9.4605378595       11.3536269668        9.1979500696
O        13.2375914139        7.5676031884        5.2230552708
O         3.7680606185        9.4604267383        0.4171463334
O         9.4604309129        5.6647273626        2.8213496938
O         7.5675936972       11.3536593084        7.6273820355
O        11.3536393877        9.4605422641        0.4170716849
O         5.6646594284        7.5675652371        5.2239300857
O         5.6647539754        9.4604239706        6.7936705556
O        11.3536590601        7.5675983813        1.9876402891
O         9.4604261221        3.7680533037        9.1978712492
O         7.5676130494       13.2375938474        4.3919723028
O         7.5675485501        3.7681285987        7.6273929677
O         9.4606061652       13.2376170462        2.8202331126
O         7.5749848319        0.0013222340        1.9848677215
O         9.4706072408        1.8890692405        6.7912974874
O         0.0013046111        9.4707432336        4.3894382928
O         1.8890585099        7.5748846839        9.1943430280
O         9.4707405053        0.0013000271        5.2255859680
O         7.5749274995        1.8890611430        0.4206685014
O         1.8890651378        9.4706075173        2.8237291074
O         0.0013220093        7.5750206817        7.6301427310
O         7.5749657234        3.7785177230        1.9862835920
O         9.4707469563       13.2372801520        6.7931597819
O        11.3496507047        9.4706046895        4.3874654200
O         5.6715596517        7.5749903472        9.1986540799
O         9.4705748766        3.7784943658        5.2245618824
O         7.5749523589       13.2372567626        0.4189006128
O         5.6715709782        9.4705223932        2.8198315523
O        11.3496592982        7.5749529064        7.6320110372
O         3.7785104230        7.5750070847        7.6287352019
O        13.2372837879        9.4707488872        2.8218613488
O        13.2372550618        7.5749377036        9.1961056768
O         3.7784910849        9.4705767689        4.3904608122
O         9.4705259789        5.6715719377        6.7951845806
O         7.5749304955       11.3496633044        1.9829989505
O         7.5750147597        5.6715661100        0.4163659003
O         9.4706028283       11.3496359218        5.2275570412
O         7.5750076349        7.5675665399        1.9873438477
O         9.4705800230        9.4604370466        6.7941344392
O         7.5675506201        9.4705238029        4.3913807924
O         9.4604256777        7.5749565879        9.1974425310
O         9.4705172049        7.5675626709        5.2236356661
O         7.5749727288        9.4604172758        0.4175781739
O         9.4604357877        9.4705795915        2.8208904910
O         7.5675691482        7.5750196655        7.6276776746
     192
 i =        3, E =     -5775.2667102552
Ti         0.0004601295        0.0004608058       -0.0000003841
Ti         1.8889682433        1.8889750620        4.8075063714
Ti         0.0004703295        1.8889485720        2.4025970957
Ti         1.8889549457        0.0004655851        7.2124244757
Ti         0.0004971885        3.7759804686        0.0025926252
Ti         1.8889649123       13.2380942081        4.8063344404
Ti        11.3497161320        1.8889722214        2.4037010994
Ti         5.6711753197        0.0004773919        7.2155052704
Ti         1.8890041174        3.7759950156        7.2097736893
Ti         0.0004576064       13.2381059184        2.4037784451
Ti         5.6711825073        1.8889783539        4.8043840687
Ti        11.3497311659        0.0004751722       -0.0011133959
Ti         3.7759781527        0.0005094924       -0.0025933920
Ti        13.2380937955        1.8889516285        4.8086868258
Ti        13.2381116891        0.0004443532        7.2112476956
Ti         3.7760049583        1.8890140597        2.4052441847
Ti         1.8889783009        5.6711866368        4.8106353797
Ti         0.0004723113       11.3497403469        0.0011101228
Ti         0.0004823959        5.6711749402        2.3995082360
Ti         1.8889805545       11.3497117521        7.2113140147
Ti         0.0004902350        7.5680410462        0.0041747101
Ti         1.8890164846        9.4629034122        4.8089024997
Ti         7.5680367116        1.8889881237        2.4068163922
Ti         9.4629253384        0.0004868765        7.2137666358
Ti         1.8889830891        7.5680281945        7.2082105942
Ti         0.0004958197        9.4629248291        2.4012634144
Ti         9.4629061794        1.8890132051        4.8061182844
Ti         7.5680334358        0.0004982786       -0.0041729678
Ti         3.7760566677        3.7760693255        0.0000009096
Ti        13.2381183643       13.2381108686        4.8075113967
Ti        11.3497222524        5.6711880019        2.4005807579
Ti         5.6711897697       11.3497043104        7.2144424336
Ti        13.2380638667        3.7759732766        7.2086603615
Ti         3.7759823838       13.2380705941        2.4063664409
Ti         5.6711705423        5.6711756692        4.8075083281
Ti        11.3497232247       11.3497243558        0.0000007091
Ti        11.3497335467       13.2380937177        2.4048875004
Ti         5.6711846406        3.7760002720        7.2127957525
Ti         3.7760014537       11.3496987475       -0.0015391322
Ti        13.2380865109        5.6711695856        4.8117698626
Ti         5.6711813521       13.2380854331        4.8032556040
Ti        11.3496777231        3.7760057724        0.0015387723
Ti        13.2381006778       11.3497179836        7.2101349137
Ti         3.7760007513        5.6711940584        2.4022283956
Ti         3.7760123004        7.5680335517        0.0014763390
Ti        13.2380762615        9.4629179870        4.8100257914
Ti         7.5680474863        5.6711782767        2.4037010774
Ti         9.4629083614       11.3496724972        7.2127032777
Ti        13.2380795471        7.5680292094        7.2070772370
Ti         3.7760587451        9.4628486474        2.4038503313
Ti         9.4629019914        5.6711965463        4.8091440471
Ti         7.5680371943       11.3497270536       -0.0031116564
Ti        11.3496820087        9.4629034219        2.4023142795
Ti         5.6711708729        7.5680377880        7.2113196438
Ti         5.6711970127        9.4629007496        4.8058746948
Ti        11.3497118176        7.5680355040        0.0031058215
Ti         9.4628390241        3.7760475457        7.2111668730
Ti         7.5680383111       13.2380873304        2.4079434917
Ti         7.5680198424        3.7760178237       -0.0014720447
Ti         9.4629276258       13.2380822534        4.8049953692
Ti         7.5680400270        7.5680507524        0.0000013375
Ti         9.4628529689        9.4628520170        4.8075108038
Ti         7.5680257238        9.4628966220        2.4053250017
Ti         9.4628872670        7.5680196912        7.2096943204
O         0.0013265746        0.0016153041        1.9859348106
O         1.8848513574        1.8877071936        6.7911790248
O         0.0016133305        1.8847657373        4.3902746083
O         1.8876681331        0.0013564381        9.1943839690
O         1.8847699725        0.0016123310        5.2247534914
O         0.0013529372        1.8876681833        0.4206393712
O         1.8877032297        1.8848555468        2.8238387765
O         0.0016173789        0.0013201311        7.6290856246
O         0.0013276023        3.7771097139        1.9853816553
O         1.8847682304       13.2369345207        6.7940313036
O        11.3509622580        1.8848478410        4.3874309292
O         5.6711330378        0.0012853560        9.1986833451
O         1.8848156986        3.7771315505        5.2251714510
O         0.0013237898       13.2369300041        0.4178154255
O         5.6711575955        1.8847814222        2.8193651039
O        11.3510007457        0.0013474489        7.6318894959
O         3.7771071953        0.0013280547        7.6296361925
O        13.2369366315        1.8847676419        2.8209936010
O        13.2369307188        0.0013256818        9.1972011042
O         3.7771326308        1.8848171776        4.3898459988
O         1.8847745328        5.6711497961        6.7956595632
O         0.0013574674       11.3510048518        1.9831336247