 DBCSR| CPU Multiplication driver                                           XSMM (U)
 DBCSR| Multrec recursion limit                                              512 (U)
 DBCSR| Multiplication stack size                                           1000 (D)
 DBCSR| Maximum elements for images                                    UNLIMITED (U)
 DBCSR| Multiplicative factor virtual images                                   1 (U)
 DBCSR| Use multiplication densification                                       T (D)
 DBCSR| Multiplication size stacks                                             3 (U)
 DBCSR| Use memory pool for CPU allocation                                     F (U)
 DBCSR| Number of 3D layers                                               SINGLE (U)
 DBCSR| Use MPI memory allocation                                              F (U)
 DBCSR| Use RMA algorithm                                                      F (U)
 DBCSR| Use Communication thread                                               T (U)
 DBCSR| Communication thread load                                             87 (D)
 DBCSR| MPI: My process id                                                     0
 DBCSR| MPI: Number of processes                                             128
 DBCSR| OMP: Current number of threads                                         1
 DBCSR| OMP: Max number of threads                                             1
 DBCSR| Split modifier for TAS multiplication algorithm                  1.0E+00 (U)


  **** **** ******  **  PROGRAM STARTED AT               2025-06-22 05:25:34.965
 ***** ** ***  *** **   PROGRAM STARTED ON                             nid001510
 **    ****   ******    PROGRAM STARTED BY                                cahart
 ***** **    ** ** **   PROGRAM PROCESS ID                                128321
  **** **  *******  **  PROGRAM STARTED IN /mnt/lustre/a2fs-work2/work/e05/e05/c
                                           ahart/postdoc2/work/group/tio2/anatas
                                           e/cell-441/geo-opt/mp-390/neutral-fro
                                           m-hole/pbe-u-o/u-2.5

 CP2K| version string:                                       CP2K version 2024.3
 CP2K| source code revision number:                                  git:6712648
 CP2K| cp2kflags: omp libint fftw3 libxc libgrpp elpa parallel scalapack cosma x
 CP2K|            smm plumed2 spglib mkl sirius libvori libbqb libvdwxc hdf5
 CP2K| is freely available from                            https://www.cp2k.org/
 CP2K| Program compiled at                       Thu 12 Sep 2024 10:20:47 AM BST
 CP2K| Program compiled on                                                  ln04
 CP2K| Program compiled for                                                local
 CP2K| Data directory path    /mnt/lustre/a2fs-work1/work/y07/shared/apps/core/c
 CP2K| Input file name                                                 input.inp

 GLOBAL| Force Environment number                                              1
 GLOBAL| Basis set file name                                        BASIS_MOLOPT
 GLOBAL| Potential file name                                      GTH_POTENTIALS
 GLOBAL| MM Potential file name                                     MM_POTENTIAL
 GLOBAL| Coordinate file name                                         system.xyz
 GLOBAL| Method name                                                        CP2K
 GLOBAL| Project name                                                       tio2
 GLOBAL| Run type                                                         ENERGY
 GLOBAL| FFT library                                                       FFTW3
 GLOBAL| Diagonalization library                                            ELPA
 GLOBAL| DGEMM library                                                      BLAS
 GLOBAL| Minimum number of eigenvectors for ELPA usage                        16
 GLOBAL| Orthonormality check for eigenvectors                          DISABLED
 GLOBAL| Matrix multiplication library                                     COSMA
 GLOBAL| All-to-all communication in single precision                          F
 GLOBAL| FFTs using library dependent lengths                                  F
 GLOBAL| Grid backend                                                       AUTO
 GLOBAL| Global print level                                               MEDIUM
 GLOBAL| MPI I/O enabled                                                       T
 GLOBAL| Total number of message passing processes                           128
 GLOBAL| Number of threads for this process                                    1
 GLOBAL| This output is from process                                           0
 GLOBAL| Stack size for threads created by OpenMP (OMP_STACKSIZE)        default
 GLOBAL| CPU model name                          AMD EPYC 7742 64-Core Processor
 GLOBAL| CPUID                                                              1002

 MEMORY| system memory details [Kb]
 MEMORY|                        rank 0           min           max       average
 MEMORY| MemTotal            263341976     263341976     263341976     263341976
 MEMORY| MemFree             234675144     234675144     234676404     234675252
 MEMORY| Buffers                     0             0             0             0
 MEMORY| Cached                1792396       1791712       1792396       1792337
 MEMORY| Slab                  6059284       6059196       6059284       6059276
 MEMORY| SReclaimable           906440        906416        906440        906437
 MEMORY| MemLikelyFree       237373980     237373980     237374532     237374027


 *** Fundamental physical constants (SI units) ***

 *** Literature: B. J. Mohr and B. N. Taylor,
 ***             CODATA recommended values of the fundamental physical
 ***             constants: 2006, Web Version 5.1
 ***             http://physics.nist.gov/constants

 Speed of light in vacuum [m/s]                             2.99792458000000E+08
 Magnetic constant or permeability of vacuum [N/A**2]       1.25663706143592E-06
 Electric constant or permittivity of vacuum [F/m]          8.85418781762039E-12
 Planck constant (h) [J*s]                                  6.62606896000000E-34
 Planck constant (h-bar) [J*s]                              1.05457162825177E-34
 Elementary charge [C]                                      1.60217648700000E-19
 Electron mass [kg]                                         9.10938215000000E-31
 Electron g factor [ ]                                     -2.00231930436220E+00
 Proton mass [kg]                                           1.67262163700000E-27
 Fine-structure constant                                    7.29735253760000E-03
 Rydberg constant [1/m]                                     1.09737315685270E+07
 Avogadro constant [1/mol]                                  6.02214179000000E+23
 Boltzmann constant [J/K]                                   1.38065040000000E-23
 Atomic mass unit [kg]                                      1.66053878200000E-27
 Bohr radius [m]                                            5.29177208590000E-11

 *** Conversion factors ***

 [u] -> [a.u.]                                              1.82288848426455E+03
 [Angstrom] -> [Bohr] = [a.u.]                              1.88972613288564E+00
 [a.u.] = [Bohr] -> [Angstrom]                              5.29177208590000E-01
 [a.u.] -> [s]                                              2.41888432650478E-17
 [a.u.] -> [fs]                                             2.41888432650478E-02
 [a.u.] -> [J]                                              4.35974393937059E-18
 [a.u.] -> [N]                                              8.23872205491840E-08
 [a.u.] -> [K]                                              3.15774647902944E+05
 [a.u.] -> [kJ/mol]                                         2.62549961709828E+03
 [a.u.] -> [kcal/mol]                                       6.27509468713739E+02
 [a.u.] -> [Pa]                                             2.94210107994716E+13
 [a.u.] -> [bar]                                            2.94210107994716E+08
 [a.u.] -> [atm]                                            2.90362800883016E+08
 [a.u.] -> [eV]                                             2.72113838565563E+01
 [a.u.] -> [Hz]                                             6.57968392072181E+15
 [a.u.] -> [1/cm] (wave numbers)                            2.19474631370540E+05
 [a.u./Bohr**2] -> [1/cm]                                   5.14048714338585E+03
 

 CELL_TOP| Volume [angstrom^3]:                                      2198.132028
 CELL_TOP| Vector a [angstrom    15.120     0.000     0.000   |a| =    15.120000
 CELL_TOP| Vector b [angstrom     0.000    15.120     0.000   |b| =    15.120000
 CELL_TOP| Vector c [angstrom     0.000     0.000     9.615   |c| =     9.615020
 CELL_TOP| Angle (b,c), alpha [degree]:                                90.000000
 CELL_TOP| Angle (a,c), beta  [degree]:                                90.000000
 CELL_TOP| Angle (a,b), gamma [degree]:                                90.000000
 CELL_TOP| Requested initial symmetry:                       MONOCLINIC_GAMMA_AB
 CELL_TOP| Numerically orthorhombic:                                         YES
 CELL_TOP| Periodicity                                                       XYZ

 *** WARNING in atoms_input.F:123 :: Overwriting coordinates. Active    ***
 *** coordinates read from &COORD section. Active coordinates READ from ***
 *** &COORD section                                                     ***


 GENERATE|  Preliminary Number of Bonds generated:                             0
 GENERATE|  Achieved consistency in connectivity generation.

 CELL| Volume [angstrom^3]:                                          2198.132028
 CELL| Vector a [angstrom]:      15.120     0.000     0.000   |a| =    15.120000
 CELL| Vector b [angstrom]:       0.000    15.120     0.000   |b| =    15.120000
 CELL| Vector c [angstrom]:       0.000     0.000     9.615   |c| =     9.615020
 CELL| Angle (b,c), alpha [degree]:                                    90.000000
 CELL| Angle (a,c), beta  [degree]:                                    90.000000
 CELL| Angle (a,b), gamma [degree]:                                    90.000000
 CELL| Requested initial symmetry:                           MONOCLINIC_GAMMA_AB
 CELL| Numerically orthorhombic:                                             YES
 CELL| Periodicity                                                           XYZ

 CELL_REF| Volume [angstrom^3]:                                      2198.132028
 CELL_REF| Vector a [angstrom    15.120     0.000     0.000   |a| =    15.120000
 CELL_REF| Vector b [angstrom     0.000    15.120     0.000   |b| =    15.120000
 CELL_REF| Vector c [angstrom     0.000     0.000     9.615   |c| =     9.615020
 CELL_REF| Angle (b,c), alpha [degree]:                                90.000000
 CELL_REF| Angle (a,c), beta  [degree]:                                90.000000
 CELL_REF| Angle (a,b), gamma [degree]:                                90.000000
 CELL_REF| Requested initial symmetry:                       MONOCLINIC_GAMMA_AB
 CELL_REF| Numerically orthorhombic:                                         YES
 CELL_REF| Periodicity                                                       XYZ

 *******************************************************************************
 *******************************************************************************
 **                                                                           **
 **     #####                         ##              ##                      **
 **    ##   ##            ##          ##              ##                      **
 **   ##     ##                       ##            ######                    **
 **   ##     ##  ##   ##  ##   #####  ##  ##   ####   ##    #####    #####    **
 **   ##     ##  ##   ##  ##  ##      ## ##   ##      ##   ##   ##  ##   ##   **
 **   ##  ## ##  ##   ##  ##  ##      ####     ###    ##   ######   ######    **
 **    ##  ###   ##   ##  ##  ##      ## ##      ##   ##   ##       ##        **
 **     #######   #####   ##   #####  ##  ##  ####    ##    #####   ##        **
 **           ##                                                    ##        **
 **                                                                           **
 **                                                ... make the atoms dance   **
 **                                                                           **
 **            Copyright (C) by CP2K developers group (2000-2024)             **
 **                      J. Chem. Phys. 152, 194103 (2020)                    **
 **                                                                           **
 *******************************************************************************

 DFT| Spin unrestricted (spin-polarized) Kohn-Sham calculation               UKS
 DFT| Multiplicity                                                             1
 DFT| Number of spin states                                                    2
 DFT| Charge                                                                   0
 DFT| Self-interaction correction (SIC)                                       NO
 DFT| Cutoffs: density                                              1.000000E-10
 DFT|          gradient                                             1.000000E-10
 DFT|          tau                                                  1.000000E-10
 DFT|          cutoff_smoothing_range                               0.000000E+00
 DFT| XC density smoothing                                                  NONE
 DFT| XC derivatives                                                          PW

 DFT+U| Method                                                          MULLIKEN
 DFT+U| Check atomic kind information for details

 FUNCTIONAL| PBE:
 FUNCTIONAL| J.P.Perdew, K.Burke, M.Ernzerhof, Phys. Rev. Letter, vol. 77, n 18,
 FUNCTIONAL|  pp. 3865-3868, (1996) {spin polarized}                            


 QS| Method:                                                                 GPW
 QS| Density plane wave grid type                        NON-SPHERICAL FULLSPACE
 QS| Number of grid levels:                                                    4
 QS| Density cutoff [a.u.]:                                                300.0
 QS| Multi grid cutoff [a.u.]: 1) grid level                               300.0
 QS|                           2) grid level                               100.0
 QS|                           3) grid level                                33.3
 QS|                           4) grid level                                11.1
 QS| Grid level progression factor:                                          3.0
 QS| Relative density cutoff [a.u.]:                                        20.0
 QS| Interaction thresholds: eps_pgf_orb:                                1.0E-06
 QS|                         eps_filter_matrix:                          0.0E+00
 QS|                         eps_core_charge:                            1.0E-14
 QS|                         eps_rho_gspace:                             1.0E-12
 QS|                         eps_rho_rspace:                             1.0E-12
 QS|                         eps_gvg_rspace:                             1.0E-06
 QS|                         eps_ppl:                                    1.0E-02
 QS|                         eps_ppnl:                                   1.0E-08


 ATOMIC KIND INFORMATION

  1. Atomic kind: Ti                                    Number of atoms:      64

     Orbital Basis Set                                    DZVP-MOLOPT-SR-GTH-q12

       Number of orbital shell sets:                                           1
       Number of orbital shells:                                               8
       Number of primitive Cartesian functions:                                6
       Number of Cartesian basis functions:                                   31
       Number of spherical basis functions:                                   26
       Norm type:                                                              2

       Normalised Cartesian orbitals:

                        Set   Shell   Orbital            Exponent    Coefficient

                          1       1    2s                7.884570       0.015554
                                                         3.894698       0.963603
                                                         1.513589      -0.631435
                                                         0.596768      -0.343022
                                                         0.222222      -0.006534
                                                         0.077078       0.007652

                          1       2    3s                7.884570      -0.009340
                                                         3.894698       0.212624
                                                         1.513589      -0.258368
                                                         0.596768      -0.226206
                                                         0.222222       0.039438
                                                         0.077078       0.107179

                          1       3    4s                7.884570       0.276563
                                                         3.894698       0.105452
                                                         1.513589       0.085149
                                                         0.596768       0.882541
                                                         0.222222      -0.696223
                                                         0.077078       0.156638

                          1       4    3px               7.884570      -2.034794
                                                         3.894698       0.782008
                                                         1.513589       1.253903
                                                         0.596768       0.347823
                                                         0.222222       0.016778
                                                         0.077078      -0.000433
                          1       4    3py               7.884570      -2.034794
                                                         3.894698       0.782008
                                                         1.513589       1.253903
                                                         0.596768       0.347823
                                                         0.222222       0.016778
                                                         0.077078      -0.000433
                          1       4    3pz               7.884570      -2.034794
                                                         3.894698       0.782008
                                                         1.513589       1.253903
                                                         0.596768       0.347823
                                                         0.222222       0.016778
                                                         0.077078      -0.000433

                          1       5    4px               7.884570       0.376572
                                                         3.894698      -0.182875
                                                         1.513589      -0.474776
                                                         0.596768      -0.081757
                                                         0.222222       0.064432
                                                         0.077078       0.047279
                          1       5    4py               7.884570       0.376572
                                                         3.894698      -0.182875
                                                         1.513589      -0.474776
                                                         0.596768      -0.081757
                                                         0.222222       0.064432
                                                         0.077078       0.047279
                          1       5    4pz               7.884570       0.376572
                                                         3.894698      -0.182875
                                                         1.513589      -0.474776
                                                         0.596768      -0.081757
                                                         0.222222       0.064432
                                                         0.077078       0.047279

                          1       6    4dx2              7.884570       3.047350
                                                         3.894698       3.289529
                                                         1.513589       1.060616
                                                         0.596768       0.249930
                                                         0.222222       0.038806
                                                         0.077078       0.002319
                          1       6    4dxy              7.884570       5.278165
                                                         3.894698       5.697631
                                                         1.513589       1.837041
                                                         0.596768       0.432892
                                                         0.222222       0.067214
                                                         0.077078       0.004017
                          1       6    4dxz              7.884570       5.278165
                                                         3.894698       5.697631
                                                         1.513589       1.837041
                                                         0.596768       0.432892
                                                         0.222222       0.067214
                                                         0.077078       0.004017
                          1       6    4dy2              7.884570       3.047350
                                                         3.894698       3.289529
                                                         1.513589       1.060616
                                                         0.596768       0.249930
                                                         0.222222       0.038806
                                                         0.077078       0.002319
                          1       6    4dyz              7.884570       5.278165
                                                         3.894698       5.697631
                                                         1.513589       1.837041
                                                         0.596768       0.432892
                                                         0.222222       0.067214
                                                         0.077078       0.004017
                          1       6    4dz2              7.884570       3.047350
                                                         3.894698       3.289529
                                                         1.513589       1.060616
                                                         0.596768       0.249930
                                                         0.222222       0.038806
                                                         0.077078       0.002319

                          1       7    5dx2              7.884570      -2.119015
                                                         3.894698      -1.237751
                                                         1.513589      -0.746777
                                                         0.596768      -0.071514
                                                         0.222222       0.004086
                                                         0.077078       0.017595
                          1       7    5dxy              7.884570      -3.670241
                                                         3.894698      -2.143848
                                                         1.513589      -1.293455
                                                         0.596768      -0.123865
                                                         0.222222       0.007077
                                                         0.077078       0.030475
                          1       7    5dxz              7.884570      -3.670241
                                                         3.894698      -2.143848
                                                         1.513589      -1.293455
                                                         0.596768      -0.123865
                                                         0.222222       0.007077
                                                         0.077078       0.030475
                          1       7    5dy2              7.884570      -2.119015
                                                         3.894698      -1.237751
                                                         1.513589      -0.746777
                                                         0.596768      -0.071514
                                                         0.222222       0.004086
                                                         0.077078       0.017595
                          1       7    5dyz              7.884570      -3.670241
                                                         3.894698      -2.143848
                                                         1.513589      -1.293455
                                                         0.596768      -0.123865
                                                         0.222222       0.007077
                                                         0.077078       0.030475
                          1       7    5dz2              7.884570      -2.119015
                                                         3.894698      -1.237751
                                                         1.513589      -0.746777
                                                         0.596768      -0.071514
                                                         0.222222       0.004086
                                                         0.077078       0.017595

                          1       8    5fx3              7.884570      -0.342058
                                                         3.894698       0.375798
                                                         1.513589      -0.706469
                                                         0.596768      -0.229994
                                                         0.222222      -0.012723
                                                         0.077078       0.003932
                          1       8    5fx2y             7.884570      -0.764866
                                                         3.894698       0.840310
                                                         1.513589      -1.579712
                                                         0.596768      -0.514282
                                                         0.222222      -0.028450
                                                         0.077078       0.008792
                          1       8    5fx2z             7.884570      -0.764866
                                                         3.894698       0.840310
                                                         1.513589      -1.579712
                                                         0.596768      -0.514282
                                                         0.222222      -0.028450
                                                         0.077078       0.008792
                          1       8    5fxy2             7.884570      -0.764866
                                                         3.894698       0.840310
                                                         1.513589      -1.579712
                                                         0.596768      -0.514282
                                                         0.222222      -0.028450
                                                         0.077078       0.008792
                          1       8    5fxyz             7.884570      -1.324787
                                                         3.894698       1.455460
                                                         1.513589      -2.736142
                                                         0.596768      -0.890763
                                                         0.222222      -0.049276
                                                         0.077078       0.015229
                          1       8    5fxz2             7.884570      -0.764866
                                                         3.894698       0.840310
                                                         1.513589      -1.579712
                                                         0.596768      -0.514282
                                                         0.222222      -0.028450
                                                         0.077078       0.008792
                          1       8    5fy3              7.884570      -0.342058
                                                         3.894698       0.375798
                                                         1.513589      -0.706469
                                                         0.596768      -0.229994
                                                         0.222222      -0.012723
                                                         0.077078       0.003932
                          1       8    5fy2z             7.884570      -0.764866
                                                         3.894698       0.840310
                                                         1.513589      -1.579712
                                                         0.596768      -0.514282
                                                         0.222222      -0.028450
                                                         0.077078       0.008792
                          1       8    5fyz2             7.884570      -0.764866
                                                         3.894698       0.840310
                                                         1.513589      -1.579712
                                                         0.596768      -0.514282
                                                         0.222222      -0.028450
                                                         0.077078       0.008792
                          1       8    5fz3              7.884570      -0.342058
                                                         3.894698       0.375798
                                                         1.513589      -0.706469
                                                         0.596768      -0.229994
                                                         0.222222      -0.012723
                                                         0.077078       0.003932

       Atomic covalent radius [Angstrom]:                                  1.320

       Atomic van der Waals radius [Angstrom]:                             1.760

     GTH Potential information for                                   GTH-PBE-q12

       Description:                       Goedecker-Teter-Hutter pseudopotential
                                           Goedecker et al., PRB 54, 1703 (1996)
                                          Hartwigsen et al., PRB 58, 3641 (1998)
                                                      Krack, TCA 114, 145 (2005)

       Gaussian exponent of the core charge distribution:               3.462604
       Electronic configuration (s p d ...):                           4   6   2

       Parameters of the local part of the GTH pseudopotential:

                          rloc        C1          C2          C3          C4
                        0.380000    8.711442   -0.700287

       Parameters of the non-local part of the GTH pseudopotential:

                   l      r(l)      h(i,j,l)

                   0    0.337771    2.575264    3.692971
                                    3.692971   -4.767605
                   1    0.242531   -4.630541    8.870875
                                    8.870875  -10.496161
                   2    0.243317   -9.406653

  2. Atomic kind: O                                     Number of atoms:     128

     Orbital Basis Set                                     DZVP-MOLOPT-SR-GTH-q6

       Number of orbital shell sets:                                           1
       Number of orbital shells:                                               5
       Number of primitive Cartesian functions:                                5
       Number of Cartesian basis functions:                                   14
       Number of spherical basis functions:                                   13
       Norm type:                                                              2

       Normalised Cartesian orbitals:

                        Set   Shell   Orbital            Exponent    Coefficient

                          1       1    2s               10.389228       0.396646
                                                         3.849621       0.208811
                                                         1.388401      -0.301641
                                                         0.496955      -0.274061
                                                         0.162492      -0.033677

                          1       2    3s               10.389228       0.303673
                                                         3.849621       0.240943
                                                         1.388401      -0.313066
                                                         0.496955      -0.043055
                                                         0.162492       0.213991

                          1       3    3px              10.389228      -1.530415
                                                         3.849621      -1.371928
                                                         1.388401      -0.761951
                                                         0.496955      -0.253695
                                                         0.162492      -0.035541
                          1       3    3py              10.389228      -1.530415
                                                         3.849621      -1.371928
                                                         1.388401      -0.761951
                                                         0.496955      -0.253695
                                                         0.162492      -0.035541
                          1       3    3pz              10.389228      -1.530415
                                                         3.849621      -1.371928
                                                         1.388401      -0.761951
                                                         0.496955      -0.253695
                                                         0.162492      -0.035541

                          1       4    4px              10.389228      -0.565392
                                                         3.849621      -0.038231
                                                         1.388401      -0.382373
                                                         0.496955       0.179070
                                                         0.162492       0.122714
                          1       4    4py              10.389228      -0.565392
                                                         3.849621      -0.038231
                                                         1.388401      -0.382373
                                                         0.496955       0.179070
                                                         0.162492       0.122714
                          1       4    4pz              10.389228      -0.565392
                                                         3.849621      -0.038231
                                                         1.388401      -0.382373
                                                         0.496955       0.179070
                                                         0.162492       0.122714

                          1       5    4dx2             10.389228       1.867377
                                                         3.849621       0.670994
                                                         1.388401       1.353441
                                                         0.496955       0.273538
                                                         0.162492       0.006620
                          1       5    4dxy             10.389228       3.234392
                                                         3.849621       1.162195
                                                         1.388401       2.344229
                                                         0.496955       0.473781
                                                         0.162492       0.011466
                          1       5    4dxz             10.389228       3.234392
                                                         3.849621       1.162195
                                                         1.388401       2.344229
                                                         0.496955       0.473781
                                                         0.162492       0.011466
                          1       5    4dy2             10.389228       1.867377
                                                         3.849621       0.670994
                                                         1.388401       1.353441
                                                         0.496955       0.273538
                                                         0.162492       0.006620
                          1       5    4dyz             10.389228       3.234392
                                                         3.849621       1.162195
                                                         1.388401       2.344229
                                                         0.496955       0.473781
                                                         0.162492       0.011466
                          1       5    4dz2             10.389228       1.867377
                                                         3.849621       0.670994
                                                         1.388401       1.353441
                                                         0.496955       0.273538
                                                         0.162492       0.006620

       Atomic covalent radius [Angstrom]:                                  0.730

       Atomic van der Waals radius [Angstrom]:                             1.520

     GTH Potential information for                                    GTH-PBE-q6

       Description:                       Goedecker-Teter-Hutter pseudopotential
                                           Goedecker et al., PRB 54, 1703 (1996)
                                          Hartwigsen et al., PRB 58, 3641 (1998)
                                                      Krack, TCA 114, 145 (2005)

       Gaussian exponent of the core charge distribution:               8.360253
       Electronic configuration (s p d ...):                               2   4

       Parameters of the local part of the GTH pseudopotential:

                          rloc        C1          C2          C3          C4
                        0.244554  -16.667215    2.487311

       Parameters of the non-local part of the GTH pseudopotential:

                   l      r(l)      h(i,j,l)

                   0    0.220956   18.337458
                   1    0.211332

     A DFT+U correction is applied to atoms of this atomic kind:
       Angular quantum momentum number L:                                      1
       U(eff) = (U - J) value in [eV]:                                     2.500


 MOLECULE KIND INFORMATION


 All atoms are their own molecule, skipping detailed information


 TOTAL NUMBERS AND MAXIMUM NUMBERS

  Total number of            - Atomic kinds:                                   2
                             - Atoms:                                        192
                             - Shell sets:                                   192
                             - Shells:                                      1152
                             - Primitive Cartesian functions:               1024
                             - Cartesian basis functions:                   3776
                             - Spherical basis functions:                   3328

  Maximum angular momentum of- Orbital basis functions:                        3
                             - Local part of the GTH pseudopotential:          2
                             - Non-local part of the GTH pseudopotential:      3


 MODULE QUICKSTEP: ATOMIC COORDINATES IN ANGSTROM

   Atom Kind Element         X             Y             Z       Z(eff)     Mass
      1    1 Ti   22     -0.007676      0.063448     -0.009441  12.0000  47.8670
      2    1 Ti   22      1.895260      1.893752      4.808090  12.0000  47.8670
      3    1 Ti   22     -0.004856      1.910252      2.437095  12.0000  47.8670
      4    1 Ti   22      1.885524      0.010492      7.212951  12.0000  47.8670
      5    1 Ti   22     -0.003581      3.764751     -0.008670  12.0000  47.8670
      6    1 Ti   22      1.895504     13.246050      4.815285  12.0000  47.8670
      7    1 Ti   22     11.326240      1.906553      2.402733  12.0000  47.8670
      8    1 Ti   22      5.657006      0.003067      7.211460  12.0000  47.8670
      9    1 Ti   22      1.887597      3.780338      7.211704  12.0000  47.8670
     10    1 Ti   22     -0.002791     13.257635      2.434906  12.0000  47.8670
     11    1 Ti   22      5.662713      1.892436      4.808584  12.0000  47.8670
     12    1 Ti   22     11.320671      0.017586     -0.004197  12.0000  47.8670
     13    1 Ti   22      3.765476      0.020918      0.004056  12.0000  47.8670
     14    1 Ti   22     13.215080      1.887684      4.804616  12.0000  47.8670
     15    1 Ti   22     13.218876      0.009631      7.219041  12.0000  47.8670
     16    1 Ti   22      3.772839      1.916172      2.397799  12.0000  47.8670
     17    1 Ti   22      1.900114      5.663778      4.813959  12.0000  47.8670
     18    1 Ti   22     -0.001265     11.496174     -0.033598  12.0000  47.8670
     19    1 Ti   22      0.000671      5.682215      2.434652  12.0000  47.8670
     20    1 Ti   22      1.888259     11.348439      7.199604  12.0000  47.8670
     21    1 Ti   22      0.000085      7.449525     -0.033882  12.0000  47.8670
     22    1 Ti   22      1.924718      9.458433      4.812716  12.0000  47.8670
     23    1 Ti   22      7.546689      1.911890      2.399345  12.0000  47.8670
     24    1 Ti   22      9.427946      0.003100      7.215350  12.0000  47.8670
     25    1 Ti   22      1.890639      7.564785      7.195741  12.0000  47.8670
     26    1 Ti   22      0.001587      9.470693      2.490247  12.0000  47.8670
     27    1 Ti   22      9.435452      1.891216      4.805099  12.0000  47.8670
     28    1 Ti   22      7.540501      0.014596      0.005902  12.0000  47.8670
     29    1 Ti   22      3.771957      3.806900      0.002078  12.0000  47.8670
     30    1 Ti   22     13.216274     13.247079      4.810774  12.0000  47.8670
     31    1 Ti   22     11.346343      5.691715      2.399597  12.0000  47.8670
     32    1 Ti   22      5.657864     11.352686      7.208031  12.0000  47.8670
     33    1 Ti   22     13.224104      3.777066      7.210966  12.0000  47.8670
     34    1 Ti   22      3.767668     13.249735      2.400970  12.0000  47.8670
     35    1 Ti   22      5.675487      5.666281      4.806044  12.0000  47.8670
     36    1 Ti   22     11.333179     11.358017     -0.000438  12.0000  47.8670
     37    1 Ti   22     11.334794     13.248173      2.404898  12.0000  47.8670
     38    1 Ti   22      5.658544      3.779561      7.213112  12.0000  47.8670
     39    1 Ti   22      3.781012     11.358925      0.005546  12.0000  47.8670
     40    1 Ti   22     13.222727      5.661884      4.815797  12.0000  47.8670
     41    1 Ti   22      5.663162     13.236617      4.802659  12.0000  47.8670
     42    1 Ti   22     11.335843      3.798190      0.000709  12.0000  47.8670
     43    1 Ti   22     13.229208     11.352557      7.200412  12.0000  47.8670
     44    1 Ti   22      3.778808      5.696897      2.403587  12.0000  47.8670
     45    1 Ti   22      3.785707      7.585364     -0.003675  12.0000  47.8670
     46    1 Ti   22     13.199924      9.462611      4.814530  12.0000  47.8670
     47    1 Ti   22      7.566325      5.692955      2.404961  12.0000  47.8670
     48    1 Ti   22      9.448129     11.350198      7.213752  12.0000  47.8670
     49    1 Ti   22     13.230942      7.565978      7.194483  12.0000  47.8670
     50    1 Ti   22      3.795363      9.468293      2.400328  12.0000  47.8670
     51    1 Ti   22      9.457456      5.665659      4.808192  12.0000  47.8670
     52    1 Ti   22      7.550875     11.358991     -0.006898  12.0000  47.8670
     53    1 Ti   22     11.333668      9.473075      2.396751  12.0000  47.8670
     54    1 Ti   22      5.671672      7.556804      7.209254  12.0000  47.8670
     55    1 Ti   22      5.684491      9.453609      4.817746  12.0000  47.8670
     56    1 Ti   22     11.338822      7.583904      0.003736  12.0000  47.8670
     57    1 Ti   22      9.444180      3.777216      7.214108  12.0000  47.8670
     58    1 Ti   22      7.551008     13.239954      2.402606  12.0000  47.8670
     59    1 Ti   22      7.550795      3.804157     -0.001435  12.0000  47.8670
     60    1 Ti   22      9.437358     13.235615      4.804251  12.0000  47.8670
     61    1 Ti   22      7.562266      7.578599     -0.004280  12.0000  47.8670
     62    1 Ti   22      9.447750      9.458969      4.817069  12.0000  47.8670
     63    1 Ti   22      7.564153      9.470766      2.398508  12.0000  47.8670
     64    1 Ti   22      9.458239      7.557970      7.206649  12.0000  47.8670
     65    2 O     8      0.001856      0.016274      1.997483   6.0000  15.9994
     66    2 O     8      1.882522      1.890181      6.797726   6.0000  15.9994
     67    2 O     8     -0.003699      1.883265      4.395991   6.0000  15.9994
     68    2 O     8      1.878771      0.060266      9.202842   6.0000  15.9994
     69    2 O     8      1.881086      0.003477      5.216419   6.0000  15.9994
     70    2 O     8     -0.002114      1.916429      0.423267   6.0000  15.9994
     71    2 O     8      1.885693      1.938018      2.815308   6.0000  15.9994
     72    2 O     8     -0.006642      0.000231      7.626110   6.0000  15.9994
     73    2 O     8     -0.004755      3.807014      1.999478   6.0000  15.9994
     74    2 O     8      1.887342     13.238512      6.801712   6.0000  15.9994
     75    2 O     8     11.333622      1.878809      4.395657   6.0000  15.9994
     76    2 O     8      5.649571     -0.000640      9.210205   6.0000  15.9994
     77    2 O     8      1.883456      3.777451      5.216788   6.0000  15.9994
     78    2 O     8     -0.001660     13.290485      0.401783   6.0000  15.9994
     79    2 O     8      5.656251      1.943273      2.811729   6.0000  15.9994
     80    2 O     8     11.324689     -0.000915      7.622529   6.0000  15.9994
     81    2 O     8      3.767073     -0.000312      7.624074   6.0000  15.9994
     82    2 O     8     13.223105      1.889947      2.813298   6.0000  15.9994
     83    2 O     8     13.222243      0.058515      9.205073   6.0000  15.9994
     84    2 O     8      3.771817      1.878290      4.395990   6.0000  15.9994
     85    2 O     8      1.888695      5.665049      6.796445   6.0000  15.9994
     86    2 O     8     -0.000563     11.341721      1.937593   6.0000  15.9994
     87    2 O     8     -0.000662      5.658542      0.406421   6.0000  15.9994
     88    2 O     8      1.887011     11.345575      5.218204   6.0000  15.9994
     89    2 O     8      0.000715      7.605154      1.939990   6.0000  15.9994
     90    2 O     8      1.875950      9.457375      6.797835   6.0000  15.9994
     91    2 O     8      7.546510      1.887793      4.390680   6.0000  15.9994
     92    2 O     8      9.431989      0.006903      9.204581   6.0000  15.9994
     93    2 O     8      1.879967      7.567650      5.219968   6.0000  15.9994
     94    2 O     8     -0.000362      9.473092      0.265146   6.0000  15.9994
     95    2 O     8      9.439510      1.933180      2.814921   6.0000  15.9994
     96    2 O     8      7.537204      0.001539      7.631285   6.0000  15.9994
     97    2 O     8      3.767554      0.018643      1.993316   6.0000  15.9994
     98    2 O     8     13.231385      1.887709      6.798517   6.0000  15.9994
     99    2 O     8      0.000458      5.653460      4.395511   6.0000  15.9994
    100    2 O     8      1.872620     11.286258      9.210859   6.0000  15.9994
    101    2 O     8     13.234661      0.002447      5.218593   6.0000  15.9994
    102    2 O     8      3.768390      1.916619      0.414236   6.0000  15.9994
    103    2 O     8      1.885797      5.713983      2.816962   6.0000  15.9994
    104    2 O     8     -0.001012     11.420510      7.609806   6.0000  15.9994
    105    2 O     8     11.302635      1.908077      0.411640   6.0000  15.9994
    106    2 O     8      5.694182     -0.000262      5.216487   6.0000  15.9994
    107    2 O     8      5.646661      1.887705      6.799730   6.0000  15.9994
    108    2 O     8     11.305415      0.012182      1.990037   6.0000  15.9994
    109    2 O     8      1.881986      3.821949      9.203859   6.0000  15.9994
    110    2 O     8     -0.003005     13.235999      4.392402   6.0000  15.9994
    111    2 O     8     -0.003559      3.762792      7.624587   6.0000  15.9994
    112    2 O     8      1.881226     13.237502      2.816854   6.0000  15.9994
    113    2 O     8      3.766403      3.816057      1.990938   6.0000  15.9994
    114    2 O     8     13.227343     13.240616      6.802434   6.0000  15.9994
    115    2 O     8     11.350678      5.650371      4.397581   6.0000  15.9994
    116    2 O     8      5.656345     11.411744      9.203980   6.0000  15.9994
    117    2 O     8     13.235244      3.773494      5.215593   6.0000  15.9994
    118    2 O     8      3.707508     13.245505      0.410965   6.0000  15.9994
    119    2 O     8      5.670213      5.710740      2.816449   6.0000  15.9994
    120    2 O     8     11.347996     11.361251      7.624414   6.0000  15.9994
    121    2 O     8     11.359489     13.243411      0.406156   6.0000  15.9994
    122    2 O     8      5.654776      3.777149      5.219041   6.0000  15.9994
    123    2 O     8      3.764624     11.355015      7.626426   6.0000  15.9994
    124    2 O     8     13.236180      5.714134      2.816532   6.0000  15.9994
    125    2 O     8      5.650350     13.233851      6.797037   6.0000  15.9994
    126    2 O     8     11.355280      3.802603      1.990151   6.0000  15.9994
    127    2 O     8     13.243660     11.292177      9.210045   6.0000  15.9994
    128    2 O     8      3.776542      5.657156      4.397573   6.0000  15.9994
    129    2 O     8      5.649869      5.665433      6.797192   6.0000  15.9994
    130    2 O     8     11.350014     11.359755      1.991494   6.0000  15.9994
    131    2 O     8     13.228616      3.814224      9.203892   6.0000  15.9994
    132    2 O     8      3.769091     13.240227      4.397411   6.0000  15.9994
    133    2 O     8     11.357309      5.700389      0.409086   6.0000  15.9994
    134    2 O     8      5.647474     11.343384      5.221133   6.0000  15.9994
    135    2 O     8      3.768203      3.765307      7.624574   6.0000  15.9994
    136    2 O     8     13.229809     13.240982      2.814162   6.0000  15.9994
    137    2 O     8     13.236358     11.350161      5.219841   6.0000  15.9994
    138    2 O     8      3.761941      5.706138      0.408427   6.0000  15.9994
    139    2 O     8      5.654044     13.241810      2.811498   6.0000  15.9994
    140    2 O     8     11.339665      3.760790      7.624471   6.0000  15.9994
    141    2 O     8      3.768352     11.356443      1.994630   6.0000  15.9994
    142    2 O     8     13.229515      5.663532      6.796260   6.0000  15.9994
    143    2 O     8     11.338963     13.240638      4.396692   6.0000  15.9994
    144    2 O     8      5.655785      3.825559      9.205782   6.0000  15.9994
    145    2 O     8      3.767441      7.588082      1.990940   6.0000  15.9994
    146    2 O     8     13.242786      9.459997      6.799351   6.0000  15.9994
    147    2 O     8      7.570017      5.647283      4.396407   6.0000  15.9994
    148    2 O     8      9.451781     11.355307      9.203408   6.0000  15.9994
    149    2 O     8     13.237083      7.571044      5.219517   6.0000  15.9994
    150    2 O     8      3.823856      9.473860      0.412197   6.0000  15.9994
    151    2 O     8      9.463636      5.709181      2.815224   6.0000  15.9994
    152    2 O     8      7.548650     11.310389      7.621776   6.0000  15.9994
    153    2 O     8     11.341349      9.472953      0.413073   6.0000  15.9994
    154    2 O     8      5.703997      7.559362      5.219846   6.0000  15.9994
    155    2 O     8      5.645919      9.451853      6.803305   6.0000  15.9994
    156    2 O     8     11.353405      7.586730      1.992695   6.0000  15.9994
    157    2 O     8      9.444122      3.827869      9.203813   6.0000  15.9994
    158    2 O     8      7.548394     13.191913      4.392774   6.0000  15.9994
    159    2 O     8      7.547600      3.768375      7.623482   6.0000  15.9994
    160    2 O     8      9.443469     13.239116      2.816318   6.0000  15.9994
    161    2 O     8      7.533353      0.014989      1.996566   6.0000  15.9994
    162    2 O     8      9.417346      1.887183      6.800975   6.0000  15.9994
    163    2 O     8      0.001517      9.468582      4.389053   6.0000  15.9994
    164    2 O     8      1.876400      7.663173      9.209016   6.0000  15.9994
    165    2 O     8      9.418432     -0.000575      5.217005   6.0000  15.9994
    166    2 O     8      7.532745      1.910157      0.410859   6.0000  15.9994
    167    2 O     8      1.891140      9.475570      2.808695   6.0000  15.9994
    168    2 O     8      0.000109      7.471720      7.609307   6.0000  15.9994
    169    2 O     8      7.582137      3.810782      1.988213   6.0000  15.9994
    170    2 O     8      9.413827     13.234106      6.802700   6.0000  15.9994
    171    2 O     8     11.348198      9.469229      4.399303   6.0000  15.9994
    172    2 O     8      5.666117      7.591848      9.195348   6.0000  15.9994
    173    2 O     8      9.467034      3.774137      5.219788   6.0000  15.9994
    174    2 O     8      7.581559     13.242962      0.412516   6.0000  15.9994
    175    2 O     8      5.673706      9.471003      2.827347   6.0000  15.9994
    176    2 O     8     11.354448      7.530934      7.624307   6.0000  15.9994
    177    2 O     8      3.767653      7.531097      7.621013   6.0000  15.9994
    178    2 O     8     13.234037      9.474609      2.808853   6.0000  15.9994
    179    2 O     8     13.246254      7.659758      9.208616   6.0000  15.9994
    180    2 O     8      3.779740      9.421474      4.400882   6.0000  15.9994
    181    2 O     8      9.464823      5.664028      6.797486   6.0000  15.9994
    182    2 O     8      7.537786     11.355305      1.988895   6.0000  15.9994
    183    2 O     8      7.534247      5.700849      0.410837   6.0000  15.9994
    184    2 O     8      9.471631     11.348120      5.225044   6.0000  15.9994
    185    2 O     8      7.586718      7.586956      1.991486   6.0000  15.9994
    186    2 O     8      9.470329      9.454673      6.802389   6.0000  15.9994
    187    2 O     8      7.570408      9.471185      4.402458   6.0000  15.9994
    188    2 O     8      9.458498      7.595412      9.202688   6.0000  15.9994
    189    2 O     8      9.469691      7.563882      5.219837   6.0000  15.9994
    190    2 O     8      7.532774      9.472644      0.409292   6.0000  15.9994
    191    2 O     8      9.457674      9.476792      2.817362   6.0000  15.9994
    192    2 O     8      7.567089      7.535793      7.619247   6.0000  15.9994



 SCF PARAMETERS         Density guess:                                   RESTART
                        --------------------------------------------------------
                        max_scf:                                              40
                        max_scf_history:                                       0
                        max_diis:                                              4
                        --------------------------------------------------------
                        eps_scf:                                        1.00E-06
                        eps_scf_history:                                0.00E+00
                        eps_diis:                                       1.00E-01
                        eps_eigval:                                     1.00E-05
                        --------------------------------------------------------
                        level_shift [a.u.]:                             0.000000
                        --------------------------------------------------------
                        Outer loop SCF in use 
                        No variables optimised in outer loop
                        eps_scf                                         1.00E-06
                        max_scf                                               60
                        No outer loop optimization
                        step_size                                       5.00E-01

 PW_GRID| Information for grid number                                          1
 PW_GRID| Grid distributed over                                   128 processors
 PW_GRID| Real space group dimensions                                   128    1
 PW_GRID| the grid is blocked:                                                NO
 PW_GRID| Cutoff [a.u.]                                                    300.0
 PW_GRID| spherical cutoff:                                                   NO
 PW_GRID|   Bounds   1           -112     112                Points:         225
 PW_GRID|   Bounds   2           -112     112                Points:         225
 PW_GRID|   Bounds   3            -72      71                Points:         144
 PW_GRID| Volume element (a.u.^3)  0.2035E-02     Volume (a.u.^3)     14833.7304
 PW_GRID| Grid span                                                    FULLSPACE
 PW_GRID|   Distribution                         Average         Max         Min
 PW_GRID|   G-Vectors                            56953.1       57150       56925
 PW_GRID|   G-Rays                                 253.1         254         253
 PW_GRID|   Real Space Points                    56953.1       64800       32400

 PW_GRID| Information for grid number                                          2
 PW_GRID| Number of the reference grid                                         1
 PW_GRID| Grid distributed over                                   128 processors
 PW_GRID| Real space group dimensions                                   128    1
 PW_GRID| the grid is blocked:                                                NO
 PW_GRID| Cutoff [a.u.]                                                    100.0
 PW_GRID| spherical cutoff:                                                   NO
 PW_GRID|   Bounds   1            -67      67                Points:         135
 PW_GRID|   Bounds   2            -67      67                Points:         135
 PW_GRID|   Bounds   3            -40      40                Points:          81
 PW_GRID| Volume element (a.u.^3)  0.1005E-01     Volume (a.u.^3)     14833.7304
 PW_GRID| Grid span                                                    FULLSPACE
 PW_GRID|   Distribution                         Average         Max         Min
 PW_GRID|   G-Vectors                            11533.0       12150       10800
 PW_GRID|   G-Rays                                  85.4          90          80
 PW_GRID|   Real Space Points                    11533.0       21870       10935

 PW_GRID| Information for grid number                                          3
 PW_GRID| Number of the reference grid                                         1
 PW_GRID| Grid distributed over                                   128 processors
 PW_GRID| Real space group dimensions                                     8   16
 PW_GRID| the grid is blocked:                                                NO
 PW_GRID| Cutoff [a.u.]                                                     33.3
 PW_GRID| spherical cutoff:                                                   NO
 PW_GRID|   Bounds   1            -37      37                Points:          75
 PW_GRID|   Bounds   2            -37      37                Points:          75
 PW_GRID|   Bounds   3            -24      23                Points:          48
 PW_GRID| Volume element (a.u.^3)  0.5494E-01     Volume (a.u.^3)     14833.7304
 PW_GRID| Grid span                                                    FULLSPACE
 PW_GRID|   Distribution                         Average         Max         Min
 PW_GRID|   G-Vectors                             2109.4        2475        1725
 PW_GRID|   G-Rays                                  28.1          33          23
 PW_GRID|   Real Space Points                     2109.4        2400        1728

 PW_GRID| Information for grid number                                          4
 PW_GRID| Number of the reference grid                                         1
 PW_GRID| Grid distributed over                                   128 processors
 PW_GRID| Real space group dimensions                                     8   16
 PW_GRID| the grid is blocked:                                                NO
 PW_GRID| Cutoff [a.u.]                                                     11.1
 PW_GRID| spherical cutoff:                                                   NO
 PW_GRID|   Bounds   1            -22      22                Points:          45
 PW_GRID|   Bounds   2            -22      22                Points:          45
 PW_GRID|   Bounds   3            -13      13                Points:          27
 PW_GRID| Volume element (a.u.^3)  0.2713         Volume (a.u.^3)     14833.7304
 PW_GRID| Grid span                                                    FULLSPACE
 PW_GRID|   Distribution                         Average         Max         Min
 PW_GRID|   G-Vectors                              427.1         585         270
 PW_GRID|   G-Rays                                   9.5          13           6
 PW_GRID|   Real Space Points                      427.1         486         270

 POISSON| Solver                                                        PERIODIC
 POISSON| Periodicity                                                        XYZ

 RS_GRID| Information for grid number                                          1
 RS_GRID|   Bounds   1           -112     112                Points:         225
 RS_GRID|   Bounds   2           -112     112                Points:         225
 RS_GRID|   Bounds   3            -72      71                Points:         144
 RS_GRID| Real space distribution over                                  8 groups
 RS_GRID| Real space distribution along direction                              1
 RS_GRID| Border size                                                         26
 RS_GRID| Real space distribution over                                 16 groups
 RS_GRID| Real space distribution along direction                              2
 RS_GRID| Border size                                                         26
 RS_GRID|   Distribution                         Average         Max         Min
 RS_GRID|   Planes                                  80.1          81          80
 RS_GRID|   Distribution                         Average         Max         Min
 RS_GRID|   Planes                                  66.1          67          66

 RS_GRID| Information for grid number                                          2
 RS_GRID|   Bounds   1            -67      67                Points:         135
 RS_GRID|   Bounds   2            -67      67                Points:         135
 RS_GRID|   Bounds   3            -40      40                Points:          81
 RS_GRID| Real space distribution over                                  8 groups
 RS_GRID| Real space distribution along direction                              1
 RS_GRID| Border size                                                         24
 RS_GRID| Real space distribution over                                 16 groups
 RS_GRID| Real space distribution along direction                              2
 RS_GRID| Border size                                                         24
 RS_GRID|   Distribution                         Average         Max         Min
 RS_GRID|   Planes                                  64.9          65          64
 RS_GRID|   Distribution                         Average         Max         Min
 RS_GRID|   Planes                                  56.4          57          56

 RS_GRID| Information for grid number                                          3
 RS_GRID|   Bounds   1            -37      37                Points:          75
 RS_GRID|   Bounds   2            -37      37                Points:          75
 RS_GRID|   Bounds   3            -24      23                Points:          48
 RS_GRID| Real space fully replicated
 RS_GRID| Group size                                                           1

 RS_GRID| Information for grid number                                          4
 RS_GRID|   Bounds   1            -22      22                Points:          45
 RS_GRID|   Bounds   2            -22      22                Points:          45
 RS_GRID|   Bounds   3            -13      13                Points:          27
 RS_GRID| Real space fully replicated
 RS_GRID| Group size                                                           1

 Spin 1

 Number of electrons:                                                        768
 Number of occupied orbitals:                                                768
 Number of molecular orbitals:                                               768

 Spin 2

 Number of electrons:                                                        768
 Number of occupied orbitals:                                                768
 Number of molecular orbitals:                                               768

 Number of orbital functions:                                               3328
 Number of independent orbital functions:                                   3328

 Extrapolation method: initial_guess

 *** WARNING in qs_initial_guess.F:306 :: User requested to restart the    ***
 *** wavefunction from the file named: tio2-RESTART.wfn. This file does    ***
 *** not exist. Please check the existence of the file or change properly  ***
 *** the value of the keyword WFN_RESTART_FILE_NAME. Calculation continues ***
 *** using ATOMIC GUESS.                                                   ***


 Atomic guess: The first density matrix is obtained in terms of atomic orbitals
               and electronic configurations assigned to each atomic kind

 Guess for atomic kind: Ti

 Electronic structure
    Total number of core electrons                                         10.00
    Total number of valence electrons                                      12.00
    Total number of electrons                                              22.00
    Multiplicity                                                   not specified
    S   [  2.00  2.00] 2.00  2.00
    P   [  6.00] 6.00
    D      2.00


 *******************************************************************************
                  Iteration          Convergence                     Energy [au]
 *******************************************************************************
                          1         2.59099                     -56.573945749309
                          2        0.737518                     -57.461623245624
                          3        0.123244E-01                 -57.676656834797
                          4        0.338536E-02                 -57.676690535970
                          5        0.252157E-03                 -57.676697146183
                          6        0.162704E-05                 -57.676697160103
                          7        0.846593E-06                 -57.676697160104

 Energy components [Hartree]           Total Energy ::          -57.676697160104
                                        Band Energy ::          -13.440549799540
                                     Kinetic Energy ::           25.008468428381
                                   Potential Energy ::          -82.685165588485
                                      Virial (-V/T) ::            3.306286661467
                                        Core Energy ::          -97.155838374470
                                          XC Energy ::           -6.919409696495
                                     Coulomb Energy ::           46.398550910862
                       Total Pseudopotential Energy ::         -122.259340742080
                       Local Pseudopotential Energy ::         -118.928992669456
                    Nonlocal Pseudopotential Energy ::           -3.330348072625
                                        Confinement ::            0.950339392289

 Orbital energies  State     L     Occupation   Energy[a.u.]          Energy[eV]

                       1     0          2.000      -2.312566          -62.928123
                       2     0          2.000      -0.123060           -3.348633

                       1     1          6.000      -1.385567          -37.703193

                       1     2          2.000      -0.127948           -3.481643


 Total Electron Density at R=0:                                         0.004726

 Guess for atomic kind: O

 Electronic structure
    Total number of core electrons                                          2.00
    Total number of valence electrons                                       6.00
    Total number of electrons                                               8.00
    Multiplicity                                                   not specified
    S   [  2.00] 2.00
    P      4.00


 *******************************************************************************
                  Iteration          Convergence                     Energy [au]
 *******************************************************************************
                          1        0.702811                     -15.577904332270
                          2        0.612408                     -15.588447180504
                          3        0.955344E-02                 -15.655871208406
                          4        0.223754E-02                 -15.655885053552
                          5        0.157183E-02                 -15.655885461027
                          6        0.124953E-02                 -15.655885607150
                          7        0.312011E-06                 -15.655885858066

 Energy components [Hartree]           Total Energy ::          -15.655885858066
                                        Band Energy ::           -2.983128125584
                                     Kinetic Energy ::           11.754765134683
                                   Potential Energy ::          -27.410650992749
                                      Virial (-V/T) ::            2.331875684345
                                        Core Energy ::          -26.153522949072
                                          XC Energy ::           -3.157392363346
                                     Coulomb Energy ::           13.655029454351
                       Total Pseudopotential Energy ::          -37.943026860963
                       Local Pseudopotential Energy ::          -39.220419683052
                    Nonlocal Pseudopotential Energy ::            1.277392822089
                                        Confinement ::            0.347387772086

 Orbital energies  State     L     Occupation   Energy[a.u.]          Energy[eV]

                       1     0          2.000      -0.861522          -23.443215

                       1     1          4.000      -0.315021           -8.572154


 Total Electron Density at R=0:                                         0.000093

 Spin 1
 Re-scaling the density matrix to get the right number of electrons for spin 1
                  # Electrons              Trace(P)               Scaling factor
                          768               768.001                        1.000

 Spin 2
 Re-scaling the density matrix to get the right number of electrons for spin 2
                  # Electrons              Trace(P)               Scaling factor
                          768               768.001                        1.000


 SCF WAVEFUNCTION OPTIMIZATION

  ----------------------------------- OT ---------------------------------------
  Minimizer      : DIIS                : direct inversion
                                         in the iterative subspace
                                         using   7 DIIS vectors
                                         safer DIIS on
  Preconditioner : FULL_SINGLE_INVERSE : inversion of 
                                         H + eS - 2*(Sc)(c^T*H*c+const)(Sc)^T
  Precond_solver : DEFAULT
  stepsize       :    0.08000000                  energy_gap     :    0.08000000
  eps_taylor     :   0.10000E-15                  max_taylor     :             4
  ----------------------------------- OT ---------------------------------------

  Step     Update method      Time    Convergence         Total energy    Change
  ------------------------------------------------------------------------------
     1 OT DIIS     0.80E-01    2.2     0.01005101     -5658.4337615703 -5.66E+03
     2 OT DIIS     0.80E-01    1.5     0.00726001     -5693.3600724520 -3.49E+01
     3 OT DIIS     0.80E-01    1.5     0.00471574     -5725.2640807406 -3.19E+01
     4 OT DIIS     0.80E-01    1.5     0.00369493     -5735.7078414061 -1.04E+01
     5 OT DIIS     0.80E-01    1.5     0.00269922     -5747.4895244663 -1.18E+01
     6 OT DIIS     0.80E-01    1.5     0.00221640     -5754.5473567294 -7.06E+00
     7 OT DIIS     0.80E-01    1.5     0.00184953     -5760.8454376284 -6.30E+00
     8 OT DIIS     0.80E-01    1.5     0.00148406     -5766.7783643947 -5.93E+00
     9 OT DIIS     0.80E-01    1.5     0.00128234     -5770.4499991815 -3.67E+00
    10 OT DIIS     0.80E-01    1.5     0.00099931     -5773.7692959094 -3.32E+00
    11 OT DIIS     0.80E-01    1.5     0.00090991     -5774.6041122576 -8.35E-01
    12 OT DIIS     0.80E-01    1.5     0.00073011     -5776.4968096313 -1.89E+00
    13 OT DIIS     0.80E-01    1.5     0.00060110     -5777.7804729493 -1.28E+00
    14 OT DIIS     0.80E-01    1.5     0.00049524     -5778.7370469850 -9.57E-01
    15 OT DIIS     0.80E-01    1.5     0.00044686     -5779.1897365706 -4.53E-01
    16 OT DIIS     0.80E-01    1.5     0.00037175     -5779.8135406181 -6.24E-01
    17 OT DIIS     0.80E-01    1.5     0.00037871     -5779.8093473867  4.19E-03
    18 OT DIIS     0.80E-01    1.5     0.00031160     -5780.2035151712 -3.94E-01
    19 OT DIIS     0.80E-01    1.5     0.00028026     -5780.4611018192 -2.58E-01
    20 OT DIIS     0.80E-01    1.5     0.00026397     -5780.5669139470 -1.06E-01
    21 OT DIIS     0.80E-01    1.5     0.00023152     -5780.8241229491 -2.57E-01
    22 OT SD       0.80E-01    1.5     0.00022903     -5780.9459764347 -1.22E-01
    23 OT DIIS     0.80E-01    1.6     0.00022107     -5780.9670031457 -2.10E-02
    24 OT DIIS     0.80E-01    1.5     0.00019610     -5781.1428586448 -1.76E-01
    25 OT DIIS     0.80E-01    1.5     0.00019340     -5781.1859169484 -4.31E-02
    26 OT DIIS     0.80E-01    1.5     0.00017566     -5781.2986703263 -1.13E-01
    27 OT DIIS     0.80E-01    1.5     0.00015397     -5781.4279537420 -1.29E-01
    28 OT DIIS     0.80E-01    1.5     0.00013701     -5781.5121792089 -8.42E-02
    29 OT DIIS     0.80E-01    1.5     0.00013634     -5781.5393338615 -2.72E-02
    30 OT DIIS     0.80E-01    1.5     0.00012637     -5781.5649233346 -2.56E-02
    31 OT DIIS     0.80E-01    1.5     0.00011206     -5781.6232630032 -5.83E-02
    32 OT DIIS     0.80E-01    1.5     0.00010247     -5781.6601977668 -3.69E-02
    33 OT DIIS     0.80E-01    1.5     0.00009865     -5781.6942971714 -3.41E-02
    34 OT DIIS     0.80E-01    1.5     0.00008962     -5781.7157788806 -2.15E-02
    35 OT SD       0.80E-01    1.6     0.00009639     -5781.7183488089 -2.57E-03
    36 OT DIIS     0.80E-01    1.5     0.00009339     -5781.7220805607 -3.73E-03
    37 OT DIIS     0.80E-01    1.5     0.00008570     -5781.7397255271 -1.76E-02
    38 OT DIIS     0.80E-01    1.5     0.00008329     -5781.7573874137 -1.77E-02
    39 OT DIIS     0.80E-01    1.5     0.00008084     -5781.7794889551 -2.21E-02
    40 OT DIIS     0.80E-01    1.5     0.00007934     -5781.7961056965 -1.66E-02

  Leaving inner SCF loop after reaching    40 steps.


  Electronic density on regular grids:      -1535.9999999999        0.0000000001
  Core density on regular grids:             1535.9999999995       -0.0000000005
  Total charge density on r-space grids:       -0.0000000004
  Total charge density g-space grids:          -0.0000000004

  Overlap energy of the core charge distribution:               0.00000000000389
  Self energy of the core charge distribution:             -12156.89556134359555
  Core Hamiltonian energy:                                   3262.64182336954582
  Hartree energy:                                            4028.47608284051057
  Exchange-correlation energy:                               -923.03217677851228

  DFT+U energy:                                                 7.01372621555713

  Total energy:                                             -5781.79610569649140

  outer SCF iter =    1 RMS gradient =   0.79E-04 energy =      -5781.7961056965

  ----------------------------------- OT ---------------------------------------
  Minimizer      : DIIS                : direct inversion
                                         in the iterative subspace
                                         using   7 DIIS vectors
                                         safer DIIS on
  Preconditioner : FULL_SINGLE_INVERSE : inversion of 
                                         H + eS - 2*(Sc)(c^T*H*c+const)(Sc)^T
  Precond_solver : DEFAULT
  stepsize       :    0.08000000                  energy_gap     :    0.08000000
  eps_taylor     :   0.10000E-15                  max_taylor     :             4
  ----------------------------------- OT ---------------------------------------

[...]
 flops    26 x    13 x    32          94984208384       0.0%    100.0%      0.0%     
 flops    13 x    26 x    32          94984208384       0.0%    100.0%      0.0%     
 flops    26 x    26 x    32          96468336640       0.0%    100.0%      0.0%     
 flops    96 x    32 x    32         111736258560       0.0%    100.0%      0.0%     
 flops    13 x    13 x    64         185783230464       0.0%    100.0%      0.0%     
 flops    26 x    13 x    64         189968416768       0.0%    100.0%      0.0%     
 flops    13 x    26 x    64         189968416768       0.0%    100.0%      0.0%     
 flops    26 x    26 x    64         192936673280       0.0%    100.0%      0.0%     
 flops    96 x    64 x    32         223472517120       0.0%    100.0%      0.0%     
 flops    96 x    32 x    64         223472517120       0.0%    100.0%      0.0%     
 flops   416 x    32 x    32         275683213312       0.0%    100.0%      0.0%     
 flops    96 x    64 x    64         446945034240       0.0%    100.0%      0.0%     
 flops   416 x    64 x    32         551366426624       0.0%    100.0%      0.0%     
 flops   416 x    32 x    64         551366426624       0.0%    100.0%      0.0%     
 flops    96 x    32 x   208         674022555648       0.0%    100.0%      0.0%     
 flops   416 x    32 x   208         768379715584       0.0%    100.0%      0.0%     
 flops   416 x    64 x    64        1102732853248       0.0%    100.0%      0.0%     
 flops    13 x    32 x    13        1166580879360       0.0%    100.0%      0.0%     
 flops    26 x    32 x    26        1203605864448       0.0%    100.0%      0.0%     
 flops    26 x    32 x    13        1203605864448       0.0%    100.0%      0.0%     
 flops    13 x    32 x    26        1203605864448       0.0%    100.0%      0.0%     
 flops    96 x    64 x   208        1349190156288       0.0%    100.0%      0.0%     
 flops   416 x    64 x   208        1542430130176       0.0%    100.0%      0.0%     
 flops inhomo. stacks                     2610456     100.0%      0.0%      0.0%
 flops total                        13.774331E+12       0.0%    100.0%      0.0%
 flops max/rank                    142.233782E+09       0.0%    100.0%      0.0%
 matmuls inhomo. stacks                      3788     100.0%      0.0%      0.0%
 matmuls total                          301254844       0.0%    100.0%      0.0%
 number of processed stacks               8517516       0.0%    100.0%      0.0%
 average stack size                                     1.0      35.4       0.0
 marketing flops                    14.991275E+12
 -------------------------------------------------------------------------------
 # multiplications                           4675
 max memory usage/rank             347.627520E+06
 # max total images/rank                        2
 # max 3D layers                                1
 # MPI messages exchanged                17353600
 MPI messages size (bytes):
  total size                         1.727546E+12
  min size                           0.000000E+00
  max size                         692.224000E+03
  average size                      99.549711E+03
 MPI breakdown and total messages size (bytes):
             size <=      128             5643552                   136928
       128 < size <=     8192              979584               6795955424
      8192 < size <=    32768             3479648              79114264304
     32768 < size <=   131072             3865856             295577767936
    131072 < size <=  4194304             3384960            1346080831680
   4194304 < size <= 16777216                   0                        0
  16777216 < size                               0                        0
 -------------------------------------------------------------------------------

 *** WARNING in dbcsr_mm.F:301 :: Using a non-square number of MPI ranks ***
 *** might lead to poor performance. Used ranks: 128 Suggested: 121 256  ***

 -------------------------------------------------------------------------------
 -                                                                             -
 -                      DBCSR MESSAGE PASSING PERFORMANCE                      -
 -                                                                             -
 -------------------------------------------------------------------------------
 ROUTINE             CALLS      AVE VOLUME [Bytes]
 MP_Bcast               50                     12.
 MP_Allreduce        24424                     27.
 MP_Alltoall         16907                  29669.
 MP_ISend           294472                  49353.
 MP_IRecv           293964                  48885.
 -------------------------------------------------------------------------------

 -------------------------------------------------------------------------------
 -                                                                             -
 -                                DBM STATISTICS                               -
 -                                                                             -
 -------------------------------------------------------------------------------
    M  x    N  x    K                                          COUNT     PERCENT
 -------------------------------------------------------------------------------

 -------------------------------------------------------------------------------
 -                                                                             -
 -                                GRID STATISTICS                              -
 -                                                                             -
 -------------------------------------------------------------------------------
 LP    KERNEL             BACKEND                              COUNT     PERCENT
 5     collocate ortho    CPU                               20388550      25.42%
 5     integrate ortho    CPU                               20074880      25.03%
 6     collocate ortho    CPU                               10415080      12.98%
 6     integrate ortho    CPU                               10254848      12.78%
 4     collocate ortho    CPU                                9302020      11.60%
 4     integrate ortho    CPU                                9158912      11.42%
 0     integrate general  CPU                                 393216       0.49%
 0     collocate general  CPU                                 221184       0.28%
 2     collocate ortho    CPU                                   2560       0.00%
 3     collocate ortho    CPU                                   1536       0.00%
 -------------------------------------------------------------------------------

 MEMORY| Estimated peak process memory [MiB]                                 332

 -------------------------------------------------------------------------------
 ----                             MULTIGRID INFO                            ----
 -------------------------------------------------------------------------------
 count for grid        1:        1287110          cutoff [a.u.]          300.00
 count for grid        2:         980963          cutoff [a.u.]          100.00
 count for grid        3:         793942          cutoff [a.u.]           33.33
 count for grid        4:         536857          cutoff [a.u.]           11.11
 total gridlevel count  :        3598872

 -------------------------------------------------------------------------------
 -                                                                             -
 -                         MESSAGE PASSING PERFORMANCE                         -
 -                                                                             -
 -------------------------------------------------------------------------------

 ROUTINE             CALLS      AVE VOLUME [Bytes]
 MP_Group                4
 MP_Bcast             8466                  19494.
 MP_Allreduce        22567                    455.
 MP_Sync               776
 MP_Alltoall          2679                1544548.
 MP_SendRecv         34036                  11544.
 MP_ISendRecv        32512                  11544.
 MP_Wait             48336
 MP_comm_split         248
 MP_ISend            28676                  77979.
 MP_IRecv            28616                  78139.
 MP_Write_All            6                 355816.
 -------------------------------------------------------------------------------


 -------------------------------------------------------------------------------
 -                                                                             -
 -                           R E F E R E N C E S                               -
 -                                                                             -
 -------------------------------------------------------------------------------
 
 CP2K version 2024.3, the CP2K developers group (2024).
 CP2K is freely available from https://www.cp2k.org/ .
 
 T. D. Kuehne, M. Iannuzzi, M. Del Ben, V. V. Rybkin, P. Seewald, F. Stein, T. 
 Laino, R. Z. Khaliullin, O. Schuett, F. Schiffmann, D. Golze, J. Wilhelm, S. 
 Chulkov, M. H. Bani-Hashemian, V. Weber, U. Borstnik, M. Taillefumier, A. S. 
 Jakobovits, A. Lazzaro, H. Pabst, T. Mueller, R. Schade, M. Guidon, S. 
 Andermatt, N. Holmberg, G. K. Schenter, A. Hehn, A. Bussy, F. Belleflamme, G. 
 Tabacchi, A. Gloess, M. Lass, I. Bethune, C. J. Mundy, C. Plessl, M. Watkins, 
 J. VandeVondele, M. Krack, J. Hutter.
 J. Chem. Phys. 152, 194103 (2020).
 CP2K: An electronic structure and molecular dynamics software package - 
 Quickstep: Efficient and accurate electronic structure calculations.
 https://doi.org/10.1063/5.0007045

 O. Schuett, P. Messmer, J. Hutter, J. VandeVondele.
 Electronic Structure Calculations on Graphics Processing Units, 173-190 (2016).
 GPU-Accelerated Sparse Matrix-Matrix Multiplication for Linear Scaling Density 
 Functional Theory.
 https://doi.org/10.1002/9781118670712.ch8

 A. Heinecke, G. Henry, M. Hutchinson, H. Pabst.
 Proceedings of Intl. Supercomputing Conference, 981-991 (2016).
 LIBXSMM: Accelerating Small Matrix Multiplications by Runtime Code Generation.
 https://doi.org/10.1109/SC.2016.83

 J. Hutter, M. Iannuzzi, F. Schiffmann, J. VandeVondele.
 WIREs Comput Mol Sci. 4, 15-25 (2014).
 CP2K: atomistic simulations of condensed matter systems.
 https://doi.org/10.1002/wcms.1159

 U. Borstnik, J. VandeVondele, V. Weber, J. Hutter.
 Parallel Comput. 40, 47-58 (2014).
 Sparse matrix multiplication: The distributed block-compressed sparse row 
 library.
 https://doi.org/10.1016/j.parco.2014.03.012

 A. Marek, V. Blum, R. Johanni, V. Havu, B. Lang, T. Auckenthaler, A. Heinecke, 
 H. Bungartz, H. Lederer.
 J. Phys. Condens. Matter 26, 213201 (2014).
 The ELPA library: scalable parallel eigenvalue solutions for electronic 
 structure theory and computational science.
 https://doi.org/10.1088/0953-8984/26/21/213201

 J. VandeVondele, J. Hutter.
 J. Chem. Phys. 127, 114105 (2007).
 Gaussian basis sets for accurate calculations on molecular systems in gas and 
 condensed phases.
 https://doi.org/10.1063/1.2770708

 J. VandeVondele, M. Krack, F. Mohamed, M. Parrinello, T. Chassaing, J. Hutter.
 Comput. Phys. Commun. 167, 103-128 (2005).
 QUICKSTEP: Fast and accurate density functional calculations using a mixed 
 Gaussian and plane waves approach.
 https://doi.org/10.1016/j.cpc.2004.12.014

 M. Krack.
 Theor. Chem. Acc. 114, 145-152 (2005).
 Pseudopotentials for H to Kr optimized for gradient-corrected 
 exchange-correlation functionals.
 https://doi.org/10.1007/s00214-005-0655-y

 M. Frigo, S. G. Johnson.
 Proc. IEEE 93, 216-231 (2005).
 The design and implementation of FFTW3.
 https://doi.org/10.1109/JPROC.2004.840301

 J. VandeVondele, J. Hutter.
 J. Chem. Phys. 118, 4365-4369 (2003).
 An efficient orbital transformation method for electronic structure 
 calculations.
 https://doi.org/10.1063/1.1543154

 C. Hartwigsen, S. Goedecker, J. Hutter.
 Phys. Rev. B 58, 3641-3662 (1998).
 Relativistic separable dual-space Gaussian pseudopotentials from H to Rn.
 https://doi.org/10.1103/PhysRevB.58.3641

 S. L. Dudarev, G. A. Botton, S. Y. Savrasov, C. J. Humphreys, A. P. Sutton.
 Phys. Rev. B 57, 1505-1509 (1998).
 Electron-energy-loss spectra and the structural stability of nickel oxide: An 
 LSDA+U study.
 https://doi.org/10.1103/PhysRevB.57.1505

 G. Lippert, J. Hutter, M. Parrinello.
 Mol. Phys. 92, 477-487 (1997).
 A hybrid Gaussian and plane wave density functional scheme.
 https://doi.org/10.1080/002689797170220

 S. L. Dudarev, D. N. Manh, A. P. Sutton.
 Philos. Mag. B 75, 613-628 (1997).
 Effect of Mott-Hubbard correlations on the electronic structure and structural 
 stability of uranium dioxide.
 https://doi.org/10.1080/13642819708202343

 S. Goedecker, M. Teter, J. Hutter.
 Phys. Rev. B 54, 1703-1710 (1996).
 Separable dual-space Gaussian pseudopotentials.
 https://doi.org/10.1103/PhysRevB.54.1703

 J. P. Perdew, K. Burke, M. Ernzerhof.
 Phys. Rev. Lett. 77, 3865-3868 (1996).
 Generalized gradient approximation made simple.
 https://doi.org/10.1103/PhysRevLett.77.3865


 -------------------------------------------------------------------------------
 -                                                                             -
 -                                T I M I N G                                  -
 -                                                                             -
 -------------------------------------------------------------------------------
 SUBROUTINE                       CALLS  ASD         SELF TIME        TOTAL TIME
                                MAXIMUM       AVERAGE  MAXIMUM  AVERAGE  MAXIMUM
 CP2K                                 1  1.0    0.126    0.137  108.430  108.435
 qs_energies                          1  2.0    0.006    0.010  107.457  107.461
 scf_env_do_scf                       1  3.0    0.004    0.007   95.941   95.943
 scf_env_do_scf_inner_loop           64  4.0    0.008    0.023   92.772   92.834
 qs_ks_update_qs_env                 66  5.0    0.001    0.002   45.800   45.918
 rebuild_ks_matrix                   64  6.0    0.002    0.002   45.711   45.827
 qs_ks_build_kohn_sham_matrix        64  7.0    0.017    0.021   45.709   45.825
 sum_up_and_integrate                64  8.0    0.005    0.008   28.859   28.876
 integrate_v_rspace                 128  9.0    0.006    0.008   28.778   28.822
 qs_rho_update_rho_low               65  5.0    0.001    0.002   26.624   26.633
 calculate_rho_elec                 130  6.0    0.048    0.056   26.623   26.632
 dbcsr_multiply_generic            4675  9.2    0.171    0.177   22.370   22.985
 qs_scf_new_mos                      64  5.0    0.000    0.001   22.018   22.184
 qs_scf_loop_do_ot                   64  6.0    0.001    0.002   22.018   22.183
 grid_integrate_task_list           128 10.0   20.467   21.550   20.467   21.550
 ot_scf_mini                         64  7.0    0.003    0.004   20.607   20.726
 grid_collocate_task_list           130  7.0   19.163   20.134   19.163   20.134
 multiply_cannon                   4675 10.2    0.722    0.770   14.848   17.238
 fft_wrap_pw1pw2                   2143 10.3    0.042    0.052   14.195   15.955
 fft_wrap_pw1pw2_300               1357 11.8    0.530    0.588   13.183   15.065
 multiply_cannon_loop              4675 11.2    0.331    0.349   12.874   14.996
 qs_vxc_create                       64  8.0    0.002    0.003   13.492   13.598
 xc_vxc_pw_create                    64  9.0    0.245    0.312   13.490   13.597
 fft3d_ps                          2143 12.3    4.241    4.721   11.203   13.233
 ot_mini                            194  6.7    0.006    0.007   11.525   11.680
 xc_pw_derive                       768 11.0    0.007    0.008    9.116   10.705
 multiply_cannon_multrec          74800 12.2    6.046    9.587    6.062    9.603
 mp_waitall_1                    559272 13.3    6.456    9.314    6.456    9.314
 scf_post_calculation_gpw             1  3.0    0.004    0.007    9.138    9.143
 qs_ot_get_p                        266  7.0    0.003    0.004    8.787    9.066
 mp_alltoall_z22v                  2143 14.3    5.780    8.948    5.780    8.948
 qs_ot_get_derivative               194  8.3    0.001    0.001    8.327    8.419
 multiply_cannon_metrocomm3       74800 12.2    0.181    0.188    4.454    7.927
 density_rs2pw                      130  7.0    0.010    0.015    6.726    7.547
 xc_rho_set_and_dset_create          64 10.0    0.220    0.350    7.006    7.398
 xc_pw_divergence                   128 10.0    0.003    0.004    6.026    7.267
 qs_ot_p2m_diag                     244  8.0    0.054    0.073    6.645    6.687
 potential_pw2rs                    128 10.0    0.011    0.013    6.533    6.581
 cp_dbcsr_syevd                     244  9.0    0.072    0.080    5.644    5.649
 qs_ot_get_derivative_diag          176  9.3    0.004    0.005    5.460    5.548
 yz_to_x                            781 13.4    0.330    0.465    3.281    5.390
 cp_fm_diag_elpa                    124 10.9    0.001    0.002    5.236    5.254
 cp_fm_redistribute_end             248 10.9    2.657    5.240    2.676    5.251
 make_lumo_gpw                        1  4.0    0.001    0.002    5.118    5.119
 ot_eigensolver                       2  5.0    0.003    0.004    5.099    5.100
 cp_fm_diag_elpa_base               124 11.9    2.503    5.017    2.516    5.052
 transfer_pw2rs                     514 11.0    0.007    0.009    4.802    4.823
 make_m2s                          9350 10.2    0.128    0.137    4.585    4.817
 transfer_rs2pw                     538  7.9    0.009    0.012    3.987    4.733
 mp_waitany                       12664 11.4    3.384    4.414    3.384    4.414
 x_to_yz                            838 13.7    0.559    0.723    3.351    4.194
 make_images                       9350 11.2    0.251    0.271    3.713    3.920
 mp_sum_l                         22686 10.2    2.016    3.505    2.016    3.505
 transfer_pw2rs_300                 130 11.9    1.632    1.730    3.320    3.500
 transfer_rs2pw_300                 136  8.9    0.923    1.319    2.553    3.419
 mp_alltoall_d11v                  3777 11.6    2.464    3.261    2.464    3.261
 init_scf_loop                        2  4.0    0.003    0.004    3.127    3.133
 write_available_results              1  4.0    0.002    0.003    3.097    3.102
 write_mo_free_results                1  5.0    0.133    0.141    3.055    3.061
 apply_preconditioner_dbcsr         202  9.3    0.001    0.001    2.542    2.880
 apply_single                       202 10.3    0.001    0.001    2.541    2.879
 ot_diis_step                        64  9.0    0.013    0.015    2.615    2.617
 mp_irecv_dv                     155709 13.2    0.756    2.571    0.756    2.571
 multiply_cannon_metrocomm4       70125 12.2    0.179    0.183    0.848    2.562
 rs_gather_matrices                 128 10.0    0.059    0.077    1.772    2.543
 xc_functional_eval                  64 11.0    0.001    0.002    2.054    2.390
 pbe_lsd_eval                        64 12.0    2.053    2.389    2.053    2.389
 -------------------------------------------------------------------------------

 The number of warnings for this run is : 3
 
 -------------------------------------------------------------------------------
  **** **** ******  **  PROGRAM ENDED AT                 2025-06-22 05:27:24.120
 ***** ** ***  *** **   PROGRAM RAN ON                                 nid001510
 **    ****   ******    PROGRAM RAN BY                                    cahart
 ***** **    ** ** **   PROGRAM PROCESS ID                                128321
  **** **  *******  **  PROGRAM STOPPED IN /mnt/lustre/a2fs-work2/work/e05/e05/c
                                           ahart/postdoc2/work/group/tio2/anatas
                                           e/cell-441/geo-opt/mp-390/neutral-fro
                                           m-hole/pbe-u-o/u-2.5
