     192
 i =        1, E =     -5789.2651749706
Ti         0.0006627734        0.0006629238        0.0000002123
Ti        -0.0005863598       -0.0005868236       -0.0000000582
Ti         0.0006667553       -0.0006094871       -0.0005880385
Ti        -0.0006061864        0.0006681820        0.0005893113
Ti         0.0006675727       -0.0010845990        0.0003016762
Ti        -0.0006046887       -0.0007046419       -0.0005904997
Ti         0.0005738860       -0.0005912407        0.0000003953
Ti        -0.0001793580        0.0006734130        0.0004410460
Ti        -0.0005641292       -0.0010725709        0.0002825060
Ti         0.0006659484       -0.0007051810        0.0000029605
Ti        -0.0001804294       -0.0005468160        0.0001489173
Ti         0.0005922316        0.0006644944       -0.0005856757
Ti        -0.0010829289        0.0006699201       -0.0003002881
Ti        -0.0007034546       -0.0006038659        0.0005929965
Ti        -0.0007032716        0.0006671836       -0.0000027749
Ti        -0.0010722541       -0.0005696452       -0.0002822601
Ti        -0.0005494030       -0.0001764467       -0.0001473403
Ti         0.0006644294        0.0005902382        0.0005886914
Ti         0.0006743382       -0.0001786140       -0.0004382866
Ti        -0.0005908489        0.0005757521       -0.0000014085
Ti         0.0006707002        0.0002148882        0.0004394740
Ti        -0.0005653869        0.0010875115       -0.0002872571
Ti         0.0002216633       -0.0005527604       -0.0001474732
Ti         0.0010920115        0.0006685503        0.0002958127
Ti        -0.0005509903        0.0002217102        0.0001446557
Ti         0.0006709532        0.0010937714       -0.0002936686
Ti         0.0010855508       -0.0005630593        0.0002838763
Ti         0.0002151436        0.0006715044       -0.0004404428
Ti        -0.0010573567       -0.0010572713       -0.0000004963
Ti        -0.0006976353       -0.0006991691        0.0000027618
Ti         0.0005352721       -0.0001833274        0.0001441111
Ti        -0.0001818149        0.0005368995       -0.0001461130
Ti        -0.0007085908       -0.0010875286       -0.0003039554
Ti        -0.0010841213       -0.0007069465        0.0003056211
Ti        -0.0001808121       -0.0001830851       -0.0000014150
Ti         0.0005752636        0.0005730376       -0.0000012407
Ti         0.0005927211       -0.0007022916        0.0005892694
Ti        -0.0001829653       -0.0010450037        0.0001229260
Ti        -0.0010748009        0.0005466040        0.0002803134
Ti        -0.0007036523       -0.0001756331        0.0004394002
Ti        -0.0001784773       -0.0007047252       -0.0004405780
Ti         0.0005511509       -0.0010758088       -0.0002791888
Ti        -0.0007047239        0.0005969898       -0.0005916959
Ti        -0.0010443000       -0.0001817421       -0.0001270790
Ti        -0.0010452227        0.0002190726        0.0001290360
Ti        -0.0007016489        0.0010974786        0.0002975271
Ti         0.0002221016       -0.0001824164        0.0000018661
Ti         0.0010835543        0.0005542342       -0.0002873401
Ti        -0.0007065272        0.0002201575       -0.0004435505
Ti        -0.0010578087        0.0010648683        0.0000037689
Ti         0.0010555862       -0.0001810898        0.0001302849
Ti         0.0002178884        0.0005343126        0.0001438961
Ti         0.0005510421        0.0010808496        0.0002851279
Ti        -0.0001835903        0.0002225198        0.0000008342
Ti        -0.0001821501        0.0010573862       -0.0001285987
Ti         0.0005354269        0.0002182460       -0.0001415663
Ti         0.0010655522       -0.0010542107       -0.0000050105
Ti         0.0002192746       -0.0007059267        0.0004434783
Ti         0.0002195425       -0.0010479958       -0.0001256861
Ti         0.0010943994       -0.0007033422       -0.0002961912
Ti         0.0002181262        0.0002189364        0.0000015612
Ti         0.0010686877        0.0010691375       -0.0000014855
Ti         0.0002260583        0.0010501056        0.0001317777
Ti         0.0010532202        0.0002229622       -0.0001343490
O        -0.0001268308        0.0000076773        0.0002755671
O         0.0002869827        0.0002305192        0.0005872048
O         0.0000349228        0.0003124327        0.0006393044
O         0.0002498869       -0.0001170727        0.0002564220
O         0.0003103845        0.0000255840       -0.0006363149
O        -0.0001113681        0.0002541003       -0.0002524211
O         0.0002352663        0.0002904798       -0.0005902358
O         0.0000066322       -0.0001235096       -0.0002746040
O        -0.0001000436       -0.0006625311        0.0002475367
O         0.0003052672       -0.0000485329        0.0006418157
O        -0.0002566361        0.0003010223        0.0005998071
O        -0.0001383762       -0.0000965190        0.0000769003
O         0.0002620554       -0.0006612540       -0.0005641046
O        -0.0001303817       -0.0000173530       -0.0002823558
O        -0.0001419468        0.0002543585       -0.0003815581
O        -0.0002654093       -0.0001077024       -0.0002611866
O        -0.0006622070       -0.0000975118       -0.0002513819
O        -0.0000498957        0.0003064524       -0.0006458280
O        -0.0000138294       -0.0001360420        0.0002761680
O        -0.0006612426        0.0002655054        0.0005615644
O         0.0002501039       -0.0001426870        0.0003841211
O        -0.0001120428       -0.0002625885        0.0002625214
O        -0.0000952960       -0.0001400143       -0.0000768730
O         0.0002989469       -0.0002586816       -0.0005973026
O        -0.0000939038        0.0001606502        0.0000780953
O         0.0002614434        0.0006537578        0.0005714791
O         0.0001574752        0.0002587838        0.0003853406
O         0.0006605969       -0.0001042419        0.0002557578
O         0.0002598897        0.0001564373       -0.0003857784
O        -0.0000990056        0.0006611085       -0.0002558624
O         0.0006552883        0.0002616124       -0.0005698507
O         0.0001593728       -0.0000910369       -0.0000810726
O        -0.0006805568        0.0000850430        0.0007071722
O         0.0001192480        0.0002436324        0.0002513646
O         0.0001100085       -0.0005900571        0.0007436064
O         0.0002396555       -0.0003115915        0.0005830854
O         0.0001447021        0.0000025784       -0.0002703106
O        -0.0006580356        0.0002723683       -0.0006614382
O         0.0003097629       -0.0005751364       -0.0007039471
O         0.0000339422       -0.0003324181       -0.0006311164
O        -0.0003158411        0.0002367816       -0.0005835063
O        -0.0005885264        0.0001106334       -0.0007404815
O        -0.0005743656        0.0003094931        0.0007058508
O        -0.0003323139        0.0000367850        0.0006280859
O         0.0002715563       -0.0006563341        0.0006623261
O         0.0000035131        0.0001471035        0.0002668345
O         0.0000878174       -0.0006763535       -0.0007102604
O         0.0002485289        0.0001157160       -0.0002489816
O        -0.0006224863       -0.0006235363        0.0006514888
O         0.0001371396       -0.0000204655        0.0002763471
O        -0.0003270645       -0.0005789125        0.0007119384
O        -0.0001402217       -0.0002717143        0.0003802716
O         0.0001113998       -0.0006650248       -0.0002446269
O        -0.0006821583       -0.0000934266       -0.0007113683
O        -0.0001188606       -0.0005580399       -0.0005712063
O        -0.0002556040       -0.0003179238       -0.0005938023
O        -0.0003369913       -0.0000401660       -0.0006388651
O        -0.0005697310       -0.0005883416       -0.0007373109
O        -0.0006597879       -0.0002777980       -0.0005580084
O        -0.0001250611       -0.0005835534       -0.0007464167
O        -0.0005840307       -0.0001261752        0.0007425846
O        -0.0002753800       -0.0006588807        0.0005582650
O        -0.0000465069       -0.0003345944        0.0006373683
O        -0.0005853753       -0.0005696288        0.0007314904
O        -0.0005577984       -0.0001183298        0.0005721155
O        -0.0003139013       -0.0002540626        0.0005951584
O        -0.0000948217       -0.0006819431        0.0007089432
O        -0.0006667109        0.0001146782        0.0002442639
O        -0.0002745066       -0.0001383934       -0.0003819410
O        -0.0005795649       -0.0003323283       -0.0007109267
O        -0.0006232893       -0.0006213066       -0.0006492695
O        -0.0000219465        0.0001364247       -0.0002738013
O         0.0001259723       -0.0002719952       -0.0002566086
O        -0.0006018090       -0.0001290365       -0.0004671337
O        -0.0001402838        0.0000956762       -0.0000772378
O        -0.0002895122       -0.0006536939       -0.0006666667
O        -0.0006544060       -0.0002846932        0.0006687844
O         0.0001006287       -0.0001430115        0.0000773558
O        -0.0002701654        0.0001277340        0.0002555171
O        -0.0001293487       -0.0006025595        0.0004655896
O        -0.0005999164        0.0001498705        0.0004699990
O         0.0001037230        0.0006592867        0.0002546169
O         0.0001303208       -0.0005631820        0.0005718121
O         0.0006570938       -0.0002800013        0.0005678948
O         0.0001040492        0.0001568920       -0.0000790595
O        -0.0006238607        0.0006169459       -0.0006579119
O         0.0005739670       -0.0005645687       -0.0007409142
O         0.0001594411       -0.0002744890       -0.0003815748
O        -0.0002825325        0.0006567755       -0.0005676109
O        -0.0005621476        0.0001318307       -0.0005716823
O        -0.0005648330        0.0005770795        0.0007409836
O        -0.0002692144        0.0001598828        0.0003815103
O         0.0006203562       -0.0006239893        0.0006575423
O         0.0001565398        0.0001069912        0.0000769944
O         0.0001488941       -0.0006005672       -0.0004662916
O         0.0006607974        0.0001020586       -0.0002524866
O         0.0006369163        0.0001174336        0.0007442082
O         0.0006188931        0.0002637187        0.0006574802
O         0.0000746100        0.0006432726        0.0007045944
O         0.0003039253        0.0006283082        0.0007055206
O         0.0006442404        0.0000740601       -0.0007030163
O         0.0006274012        0.0003135638       -0.0007083571
O         0.0002662619        0.0006166343       -0.0006578298
O         0.0001147481        0.0006348788       -0.0007410660
O         0.0006152380       -0.0005828062        0.0007335555
O         0.0006438092       -0.0000900046        0.0007078439
O        -0.0002895404        0.0006215177        0.0006657073
O        -0.0001172269        0.0006098311        0.0005669662
O         0.0005874399       -0.0006323937       -0.0006463634
O         0.0006370722       -0.0001258981       -0.0007446403
O        -0.0001289243        0.0005677134       -0.0004628477
O        -0.0003197869        0.0006255358       -0.0007095166
O        -0.0005823968        0.0006139608       -0.0007332806
O        -0.0000960662        0.0006426340       -0.0007100073
O        -0.0001211401        0.0006384160        0.0007442889
O        -0.0006331826        0.0005867980        0.0006448368
O         0.0005671723       -0.0001292024        0.0004630381
O         0.0006265853       -0.0003226724        0.0007109962
O         0.0006076334       -0.0001162551       -0.0005686291
O         0.0006225191       -0.0002889450       -0.0006658591
O         0.0006061249        0.0001363069        0.0005654553
O         0.0005886205        0.0006213919        0.0006534226
O         0.0001424462        0.0005696752        0.0004642460
O         0.0005762910        0.0006178358        0.0007383250
O         0.0005708397        0.0001423684       -0.0004637001
O         0.0006162817        0.0005793073       -0.0007399924
O         0.0006214874        0.0005900315       -0.0006518227
O         0.0001349756        0.0006054018       -0.0005666014
     192
 i =        2, E =     -5789.2657702675
Ti         0.0000933643        0.0000979827       -0.0000023328
Ti        -0.0002977269       -0.0002994680       -0.0000010054
Ti         0.0000953490       -0.0002960465        0.0003398057
Ti        -0.0003025878        0.0000955689       -0.0003404887
Ti         0.0001008000       -0.0008194972        0.0002237805
Ti        -0.0003021740       -0.0000995513        0.0003278277
Ti         0.0002686759       -0.0002992728       -0.0000191166
Ti        -0.0005905602        0.0000945338        0.0001465314
Ti        -0.0002957622       -0.0008191539       -0.0005610847
Ti         0.0000942908       -0.0000993103        0.0000095707
Ti        -0.0005791366       -0.0003023459       -0.0005034732
Ti         0.0002753493        0.0000962495        0.0003624026
Ti        -0.0008250646        0.0001012848       -0.0002196272
Ti        -0.0001025717       -0.0003014052       -0.0003243005
Ti        -0.0001004539        0.0000938533       -0.0000097347
Ti        -0.0008168343       -0.0002967122        0.0005632335
Ti        -0.0003057589       -0.0005848219        0.0005070072
Ti         0.0000966893        0.0002722122       -0.0003550354
Ti         0.0000941078       -0.0005929579       -0.0001430859
Ti        -0.0002965640        0.0002711450        0.0000217669
Ti         0.0000942280        0.0006398826        0.0001406026
Ti        -0.0002946607        0.0007987370        0.0005488969
Ti         0.0006257015       -0.0003024498        0.0005041351
Ti         0.0008097452        0.0000975296        0.0002094345
Ti        -0.0003043781        0.0006226069       -0.0005069745
Ti         0.0001011725        0.0008076387       -0.0002109740
Ti         0.0008003715       -0.0002987822       -0.0005512267
Ti         0.0006441004        0.0000955899       -0.0001478182
Ti        -0.0008026197       -0.0008060703       -0.0000027815
Ti        -0.0000998831       -0.0001045839       -0.0000031380
Ti         0.0002765341       -0.0005791316       -0.0005229756
Ti        -0.0005825450        0.0002780757        0.0005206888
Ti        -0.0001081372       -0.0008274026       -0.0002358879
Ti        -0.0008287999       -0.0001040863        0.0002340275
Ti        -0.0005723879       -0.0005752999       -0.0000029362
Ti         0.0002738079        0.0002702073       -0.0000032623
Ti         0.0002736331       -0.0001001690       -0.0003469418
Ti        -0.0005688812       -0.0008106907       -0.0000416676
Ti        -0.0008180388        0.0002712107       -0.0005840664
Ti        -0.0001035056       -0.0005937626        0.0001495537
Ti        -0.0005963080       -0.0001039798       -0.0001531731
Ti         0.0002686590       -0.0008145450        0.0005785905
Ti        -0.0000999036        0.0002712185        0.0003474772
Ti        -0.0008104419       -0.0005700956        0.0000398148
Ti        -0.0008076464        0.0006188008       -0.0000347627
Ti        -0.0001081875        0.0008069965        0.0002204251
Ti         0.0006167056       -0.0005668403        0.0000009916
Ti         0.0008015070        0.0002703020        0.0005733705
Ti        -0.0001054924        0.0006415509       -0.0001506324
Ti        -0.0008085751        0.0007894469        0.0000116147
Ti         0.0007930293       -0.0005734221       -0.0000215081
Ti         0.0006270008        0.0002758722       -0.0005199977
Ti         0.0002699727        0.0008025394       -0.0005704866
Ti        -0.0005690381        0.0006183834        0.0000051558
Ti        -0.0005753582        0.0007924908        0.0000274270
Ti         0.0002780433        0.0006290734        0.0005241837
Ti         0.0007911185       -0.0008057560       -0.0000095030
Ti         0.0006422061       -0.0001057447        0.0001519459
Ti         0.0006182921       -0.0008074222        0.0000386857
Ti         0.0008091621       -0.0001116809       -0.0002197072
Ti         0.0006156670        0.0006195664       -0.0000034360
Ti         0.0007844403        0.0007880606       -0.0000018817
Ti         0.0006148500        0.0007935782       -0.0000243501
Ti         0.0007934434        0.0006160364        0.0000232314
O         0.0000941253        0.0003742266       -0.0004599065
O         0.0000099200       -0.0002031819        0.0000542537
O         0.0003479382       -0.0000095689       -0.0001777951
O        -0.0001950514        0.0000858825       -0.0002293306
O        -0.0000095868        0.0003413617        0.0001752956
O         0.0000865855       -0.0001941238        0.0002289078
O        -0.0001993106        0.0000071724       -0.0000547484
O         0.0003799175        0.0000956878        0.0004610805
O         0.0000770626        0.0001358242       -0.0008567680
O        -0.0000135625       -0.0003295866       -0.0001651888
O         0.0002029661        0.0000106822        0.0000811213
O         0.0000641906        0.0000647981       -0.0007777046
O         0.0000290232        0.0001109986        0.0005761394
O         0.0000934711       -0.0003660696        0.0004509542
O         0.0000546739        0.0000222045        0.0005052338
O         0.0002034248        0.0000908067        0.0002033182
O         0.0001391186        0.0000787533        0.0008565054
O        -0.0003247509       -0.0000147711        0.0001640221
O        -0.0003565697        0.0000935792       -0.0004495684
O         0.0001029023        0.0000268573       -0.0005745952
O         0.0000246047        0.0000635805       -0.0005079176
O         0.0000886671        0.0002035179       -0.0002026036
O         0.0000664062        0.0000550471        0.0007769037
O         0.0000095161        0.0002067280       -0.0000809338
O         0.0000680655       -0.0000658157       -0.0007831460
O         0.0000239484       -0.0001225083       -0.0005619524
O        -0.0000615796        0.0000263092       -0.0005109251
O        -0.0001572725        0.0000754267       -0.0008467707
O         0.0000269207       -0.0000629129        0.0005118850
O         0.0000768556       -0.0001388389        0.0008455077
O        -0.0001179421        0.0000236282        0.0005631864
O        -0.0000705760        0.0000692235        0.0007822292
O         0.0002734402        0.0002909050       -0.0001780731
O        -0.0000876478       -0.0001879254       -0.0002286733
O         0.0002842088       -0.0005699314       -0.0000327494
O        -0.0001931344        0.0000060268        0.0000478612
O        -0.0000924233        0.0003828621        0.0004617319
O         0.0002702192       -0.0002380703       -0.0000370710
O        -0.0001620027       -0.0005466499       -0.0001936028
O         0.0003449202        0.0000316559        0.0001826285
O         0.0000072314       -0.0002028711       -0.0000486078
O        -0.0005706446        0.0002895917        0.0000335249
O        -0.0005464116       -0.0001542646        0.0001926564
O         0.0000322226        0.0003465135       -0.0001841630
O        -0.0002298130        0.0002691561        0.0000364737
O         0.0003769460       -0.0000924226       -0.0004615542
O         0.0002951127        0.0002761397        0.0001798997
O        -0.0001878507       -0.0000894392        0.0002300929
O         0.0002527496        0.0000762665       -0.0006365371
O        -0.0000942817       -0.0003623251       -0.0004507823
O         0.0001699738       -0.0005479788        0.0002211948
O         0.0000548948       -0.0000125885       -0.0005121467
O        -0.0000732410        0.0001296046        0.0008601543
O         0.0002680736       -0.0002732042        0.0001675561
O         0.0000762848       -0.0005028445        0.0004129128
O         0.0001995326        0.0000104462       -0.0000741924
O         0.0000319399       -0.0003232859        0.0001741409
O        -0.0005244443        0.0001367736        0.0004590578
O         0.0001087935       -0.0000114133        0.0005803960
O        -0.0002679419       -0.0005688408        0.0000232731
O        -0.0005689066       -0.0002762745       -0.0000232986
O        -0.0000103695        0.0001114955       -0.0005824389
O        -0.0003380325        0.0000319853       -0.0001723392
O         0.0001453867       -0.0005247753       -0.0004579508
O        -0.0005026486        0.0000701800       -0.0004146169
O         0.0000101671        0.0002034390        0.0000725570
O        -0.0002776004        0.0002638905       -0.0001684171
O         0.0001392617       -0.0000720311       -0.0008599994
O        -0.0000136408        0.0000605942        0.0005127477
O        -0.0005489895        0.0001635974       -0.0002212420
O         0.0000679791        0.0002545674        0.0006332241
O        -0.0003646597       -0.0000944820        0.0004497796
O        -0.0000847151        0.0002040652        0.0002043617
O         0.0002333166        0.0000592452        0.0005888038
O         0.0000592010       -0.0000673266        0.0007779994
O         0.0002329286        0.0002792904       -0.0000652922
O         0.0002782937        0.0002314841        0.0000644474
O        -0.0000669406        0.0000570305       -0.0007788993
O         0.0002016333       -0.0000832805       -0.0002030192
O         0.0000472444        0.0002320849       -0.0005856665
O         0.0002408499       -0.0000545015       -0.0005922557
O        -0.0000758221       -0.0001491331       -0.0008464681
O        -0.0000893667       -0.0005045991       -0.0004184894
O        -0.0001196361       -0.0000116663       -0.0005679919
O        -0.0000637626       -0.0000657328        0.0007833920
O         0.0002490953       -0.0000909890        0.0006195271
O        -0.0001542500       -0.0005244461        0.0004431528
O        -0.0000563864       -0.0000116598        0.0005173321
O        -0.0000137743       -0.0001287692        0.0005696814
O        -0.0005036760       -0.0000780022        0.0004179655
O        -0.0005242353       -0.0001506458       -0.0004442364
O        -0.0000115931       -0.0000628479       -0.0005187445
O        -0.0000818361        0.0002476454       -0.0006181880
O        -0.0000679181       -0.0000622493       -0.0007839498
O        -0.0000514343        0.0002411412        0.0005921548
O        -0.0001500008       -0.0000768564        0.0008455636
O         0.0005755520        0.0002874887       -0.0000306872
O        -0.0002942790       -0.0002367418        0.0000276045
O         0.0002900520       -0.0002890692       -0.0001875968
O        -0.0001708091        0.0005509752        0.0001941568
O        -0.0002898267        0.0002928219        0.0001863665
O         0.0005510326       -0.0001594989       -0.0001929532
O        -0.0002374231       -0.0002949596       -0.0000273286
O         0.0002815149        0.0005761050        0.0000324658
O         0.0005270296        0.0001348903       -0.0004611464
O        -0.0002936136       -0.0002743117       -0.0001759628
O         0.0002389640       -0.0002891284        0.0000572141
O         0.0000798663        0.0005030420       -0.0004186800
O        -0.0002653628        0.0000806158        0.0006414843
O         0.0005759443       -0.0002707563        0.0000235858
O         0.0000583788       -0.0002505803        0.0005939129
O         0.0001763422        0.0005523466       -0.0002200359
O         0.0001397894        0.0005254952        0.0004602779
O        -0.0002788534       -0.0002952864        0.0001759402
O        -0.0002610511        0.0005762173       -0.0000199545
O         0.0000743146       -0.0002633962       -0.0006420518
O        -0.0002511008        0.0000584794       -0.0005945407
O         0.0005519957        0.0001715699        0.0002194757
O         0.0005043251        0.0000696048        0.0004178906
O        -0.0002894480        0.0002459438       -0.0000563984
O         0.0005048726       -0.0000819831       -0.0004234393
O        -0.0002685571       -0.0000959377       -0.0006281109
O        -0.0000514285       -0.0002474186       -0.0005964841
O        -0.0001517154        0.0005274032       -0.0004468259
O        -0.0002456644       -0.0000621389        0.0005977485
O         0.0005274688       -0.0001436405        0.0004463170
O        -0.0000898924       -0.0002686754        0.0006269849
O        -0.0000872232        0.0005048169        0.0004226619
     192
 i =        3, E =     -5789.2660204042
Ti         0.0001924094        0.0001953166       -0.0000016007
Ti        -0.0001211864       -0.0001225053       -0.0000002046
Ti         0.0001898816       -0.0001214312        0.0002280605
Ti        -0.0001249698        0.0001909429       -0.0002282183
Ti         0.0001895707       -0.0002486489        0.0003386186
Ti        -0.0001240033       -0.0001869844        0.0002193206
Ti         0.0001142219       -0.0001227415       -0.0000241759
Ti        -0.0002835384        0.0001757165        0.0004604332
Ti        -0.0001188463       -0.0002520551       -0.0005654916
Ti         0.0001925092       -0.0001906683        0.0000062807
Ti        -0.0002815499       -0.0001284623       -0.0007053618
Ti         0.0001191014        0.0001908888        0.0002538680
Ti        -0.0002522080        0.0001896524       -0.0003359825
Ti        -0.0001891474       -0.0001236599       -0.0002178948
Ti        -0.0001916487        0.0001921257       -0.0000058553
Ti        -0.0002507360       -0.0001198420        0.0005663205
Ti        -0.0001298697       -0.0002851356        0.0007089593
Ti         0.0001916520        0.0001169031       -0.0002496324
Ti         0.0001750607       -0.0002850770       -0.0004596109
Ti        -0.0001210646        0.0001154017        0.0000257897
Ti         0.0001758477        0.0003023668        0.0004562467
Ti        -0.0001182327        0.0002340365        0.0005452483
Ti         0.0002984356       -0.0001276772        0.0007032833
Ti         0.0002356999        0.0001878708        0.0003194407
Ti        -0.0001282556        0.0002963354       -0.0007049887
Ti         0.0001895569        0.0002344393       -0.0003202627
Ti         0.0002348678       -0.0001209543       -0.0005461613
Ti         0.0003061882        0.0001766455       -0.0004600674
Ti        -0.0002427510       -0.0002444892       -0.0000012399
Ti        -0.0001928665       -0.0001952919       -0.0000018421
Ti         0.0001209303       -0.0002814701       -0.0007285025
Ti        -0.0002839797        0.0001217980        0.0007273504
Ti        -0.0001865171       -0.0002519856       -0.0003489715
Ti        -0.0002527893       -0.0001843055        0.0003471460
Ti        -0.0002925899       -0.0002939366       -0.0000007625
Ti         0.0001165782        0.0001151719       -0.0000005569
Ti         0.0001183175       -0.0001875353       -0.0002437892
Ti        -0.0002787795       -0.0002564578        0.0001632122
Ti        -0.0002516198        0.0001133747       -0.0005903527
Ti        -0.0001754094       -0.0002839487        0.0004665598
Ti        -0.0002865012       -0.0001753878       -0.0004678512
Ti         0.0001109925       -0.0002501764        0.0005878185
Ti        -0.0001866078        0.0001166256        0.0002429012
Ti        -0.0002555102       -0.0002802024       -0.0001652887
Ti        -0.0002540076        0.0002965079        0.0001641136
Ti        -0.0001879290        0.0002333780        0.0003278041
Ti         0.0003077488       -0.0002898316       -0.0000049549
Ti         0.0002351274        0.0001133711        0.0005728144
Ti        -0.0001758809        0.0003029254       -0.0004650133
Ti        -0.0002443369        0.0002301945        0.0000193584
Ti         0.0002419402       -0.0002802793        0.0001886263
Ti         0.0002995551        0.0001200886       -0.0007233277
Ti         0.0001130976        0.0002364028       -0.0005719370
Ti        -0.0002905168        0.0003084423        0.0000068902
Ti        -0.0002814606        0.0002406271       -0.0001853307
Ti         0.0001203506        0.0003009649        0.0007272561
Ti         0.0002296284       -0.0002442572       -0.0000181300
Ti         0.0003027408       -0.0001764054        0.0004639211
Ti         0.0002972509       -0.0002541140       -0.0001614112
Ti         0.0002355779       -0.0001894027       -0.0003266348
Ti         0.0003082709        0.0003094839       -0.0000020976
Ti         0.0002265307        0.0002281997       -0.0000005836
Ti         0.0002925954        0.0002418653        0.0001811959
Ti         0.0002407723        0.0002947496       -0.0001821787
O        -0.0000966471       -0.0000220848       -0.0002608020
O        -0.0000072009        0.0000205122       -0.0000167160
O        -0.0000234434        0.0000045356       -0.0003683132
O         0.0000446610       -0.0000957764        0.0000787546
O         0.0000047067       -0.0000264283        0.0003675038
O        -0.0000962419        0.0000443610       -0.0000789195
O         0.0000209191       -0.0000073382        0.0000164054
O        -0.0000195931       -0.0000981498        0.0002604059
O        -0.0000875117        0.0000739448       -0.0005602508
O         0.0000062004        0.0000412010       -0.0003685060
O        -0.0000186451       -0.0000096571       -0.0000057601
O         0.0001820620       -0.0000837129       -0.0005441118
O        -0.0000007270        0.0000597623        0.0006641585
O        -0.0000963976        0.0000322667        0.0002633407
O         0.0001690072       -0.0000028126        0.0006495921
O        -0.0000423957       -0.0000981655       -0.0000914513
O         0.0000758397       -0.0000882996        0.0005608512
O         0.0000417925        0.0000060131        0.0003690930
O         0.0000373774       -0.0000954155       -0.0002622139
O         0.0000547591       -0.0000011453       -0.0006637577
O        -0.0000025054        0.0001745364       -0.0006510406
O        -0.0000974885       -0.0000426657        0.0000916316