     192
 i =        1, E =     -5789.2651749706
Ti        -0.0006772965       -0.0006998406       -0.0000014095
Ti         1.8928073599        1.8928322157        4.8075132161
Ti        -0.0006386523        1.8928016855        2.4026285284
Ti         1.8928182220       -0.0006324391        7.2123762593
Ti        -0.0006229088        3.7812171956        0.0017050660
Ti         1.8928377692       13.2394635668        4.8063770156
Ti        11.3460438372        1.8927985028        2.4037164354
Ti         5.6738835240       -0.0006026250        7.2133621474
Ti         1.8927685187        3.7812904722        7.2106818450
Ti        -0.0006661129       13.2394489143        2.4037819830
Ti         5.6739028994        1.8927895377        4.8065240307
Ti        11.3459969099       -0.0006678551       -0.0010967000
Ti         3.7812307533       -0.0006305888       -0.0016973713
Ti        13.2394471445        1.8928412046        4.8086382425
Ti        13.2394626694       -0.0006531327        7.2112551934
Ti         3.7812761996        1.8927834999        2.4043397330
Ti         1.8927875618        5.6739112978        4.8084808688
Ti        -0.0006596466       11.3460048446        0.0010795912
Ti        -0.0006075605        5.6738798595        2.4016401143
Ti         1.8928042765       11.3460408661        7.2112973155
Ti        -0.0006051347        7.5650451222        0.0021013285
Ti         1.8928071398        9.4576511067        4.8080602642
Ti         7.5650644852        1.8927631107        2.4047271956
Ti         9.4576544334       -0.0006095253        7.2129393387
Ti         1.8927728803        7.5650678921        7.2103058259
Ti        -0.0006150511        9.4576489838        2.4020783986
Ti         9.4576467475        1.8928153939        4.8069647266
Ti         7.5650367439       -0.0006169900       -0.0020906784
Ti         3.7812589087        3.7812594786        0.0000013320
Ti        13.2394720942       13.2394912545        4.8075155544
Ti        11.3460850229        5.6738901220        2.4027456292
Ti         5.6738931288       11.3460673526        7.2122790571
Ti        13.2394192561        3.7812756531        7.2095658106
Ti         3.7812564295       13.2394085979        2.4054651692
Ti         5.6739111479        5.6739160169        4.8075146733
Ti        11.3460155979       11.3460224340        0.0000040513
Ti        11.3460205980       13.2394278324        2.4048682545
Ti         5.6738791480        3.7812781162        7.2116939813
Ti         3.7812599390       11.3460580266       -0.0006015295
Ti        13.2394194201        5.6739071681        4.8096337807
Ti         5.6739139117       13.2394207238        4.8054017788
Ti        11.3460478846        3.7812515845        0.0006011228
Ti        13.2394354540       11.3460179842        7.2101623632
Ti         3.7812786114        5.6738799110        2.4033450181
Ti         3.7812709192        7.5650490846        0.0003954092
Ti        13.2394399309        9.4576771291        4.8091950432
Ti         7.5650664034        5.6738763115        2.4037351783
Ti         9.4576339727       11.3460555715        7.2118364806
Ti        13.2394094300        7.5650636911        7.2091715392
Ti         3.7812758195        9.4576224516        2.4037813834
Ti         9.4576511013        5.6739244369        4.8079457029
Ti         7.5650486285       11.3460698091       -0.0009983122
Ti        11.3460658827        9.4576327999        2.4031760664
Ti         5.6738899028        7.5650554853        7.2112752164
Ti         5.6739213517        9.4576504983        4.8070607387
Ti        11.3460684226        7.5650412734        0.0009857945
Ti         9.4576247400        3.7812754697        7.2112350442
Ti         7.5650538594       13.2394022793        2.4058574124
Ti         7.5650453055        3.7812573737       -0.0004091459
Ti         9.4576743464       13.2394528694        4.8058257627
Ti         7.5650585882        7.5650484955        0.0000075628
Ti         9.4576613172        9.4576606690        4.8075088695
Ti         7.5650509785        9.4576345444        2.4041743867
Ti         9.4576296169        7.5650567293        7.2108495830
O         0.0013234376        0.0027618848        1.9962756137
O         1.8849351637        1.8898501177        6.8020185462
O         0.0027278912        1.8846907670        4.3992302528
O         1.8897721429        0.0013495692        9.2065026381
O         1.8847027800        0.0027587109        5.2157828881
O         0.0013148341        1.8897624953        0.4085021541
O         1.8898336501        1.8849246145        2.8130148706
O         0.0027596951        0.0013020516        7.6187406944
O         0.0013045933        3.7817415598        1.9962357813
O         1.8847416986       13.2360252817        6.8029774300
O        11.3489968591        1.8848488012        4.3982224341
O         5.6727979972        0.0013281940        9.2078597031
O         1.8851066696        3.7817617229        5.2156909045
O         0.0013449998       13.2359873358        0.4074963216
O         5.6728381583        1.8852196998        2.8115486897
O        11.3490396020        0.0012807583        7.6197943192
O         3.7817388703        0.0012862194        7.6187882197
O        13.2360224189        1.8847404475        2.8120490319
O        13.2359731065        0.0013755457        9.2075387386
O         3.7817724705        1.8850941010        4.3993325647
O         1.8852370863        5.6728189097        6.8034638914
O         0.0013115535       11.3490341580        1.9952153734
O         0.0013156285        5.6728216134        0.4071570091
O         1.8848642779       11.3490010561        5.2167888649
O         0.0013008742        7.5661646652        1.9965896304
O         1.8851247611        9.4571473403        6.8030608015
O         7.5661667524        1.8851789110        4.3997005817
O         9.4571618186        0.0013323069        9.2074827649
O         1.8851706911        7.5661651461        5.2153274304
O         0.0013015478        9.4571353127        0.4075390738
O         9.4571415964        1.8851255566        2.8119591824
O         7.5661801462        0.0012800126        7.6184478388
O         3.7755616699        0.0027137074        1.9949898923
O        13.2372189640        1.8897853792        6.8027477996
O         0.0027127509        5.6707588533        4.3984418841
O         1.8898164432       11.3538040882        9.2057977914
O        13.2371419902        0.0027646245        5.2149837459
O         3.7757042608        1.8898891373        0.4096745585
O         1.8899063909        5.6708437672        2.8136828418
O         0.0027361513       11.3539940228        7.6195057962
O        11.3538230091        1.8898317114        0.4092225226
O         5.6707611095        0.0027089166        5.2165617588
O         5.6708427458        1.8898986095        6.8013257989
O        11.3539922864        0.0027233881        1.9955179244
O         1.8898804994        3.7756997478        9.2053461353
O         0.0027673354       13.2371291053        4.4000482973
O         0.0027013139        3.7755249175        7.6200373697
O         1.8897716799       13.2372458264        2.8122628028
O         3.7757644457        3.7817767064        1.9952862261
O        13.2371898881       13.2359917940        6.8037736864
O        11.3489206624        5.6707711656        4.3975423439
O         5.6728255109       11.3535054724        9.2072418037
O        13.2371972865        3.7817637230        5.2150319534
O         3.7755920301       13.2360423897        0.4087782285
O         5.6728395312        5.6708477324        2.8119650780
O        11.3490013812       11.3538284063        7.6205219906
O        11.3540206725       13.2360000875        0.4082640816
O         5.6707971461        3.7817993543        5.2162017719
O         3.7817625867       11.3535830019        7.6194276415
O        13.2360578601        5.6708194588        2.8128329989
O         5.6708186226       13.2360672685        6.8022010565
O        11.3535651113        3.7817564803        1.9955989887
O        13.2360264028       11.3540074539        9.2067611256
O         3.7817804033        5.6708081575        4.3988425768
O         5.6708479571        5.6728453637        6.8030678091
O        11.3538057171       11.3489943924        1.9945016342
O        13.2360480234        3.7756088448        9.2062540018
O         3.7817516637       13.2371777001        4.3999915655
O        11.3535234335        5.6728126078        0.4077875053
O         5.6707708354       11.3489340484        5.2174809862
O         3.7817857263        3.7757473314        7.6197400505
O        13.2359972944       13.2371945385        2.8112388268
O        13.2371749590       11.3490487032        5.2160402486
O         3.7758429590        5.6728144749        0.4080243011
O         5.6728215092       13.2372682011        2.8109269762
O        11.3489497353        3.7756274328        7.6209613686
O         3.7756381992       11.3489446228        1.9940602222
O        13.2372401296        5.6728364456        6.8041005410
O        11.3490484285       13.2371605143        4.3989855403
O         5.6728432860        3.7758473777        9.2070030232
O         3.7757912768        7.5661352768        1.9957041871
O        13.2372509130        9.4571510350        6.8037198597
O         7.5661785379        5.6707946603        4.3992951274
O         9.4571320882       11.3536004128        9.2068299336
O        13.2372102343        7.5661757740        5.2146945905
O         3.7757795134        9.4571367712        0.4085071153
O         9.4571309819        5.6708528130        2.8124619649
O         7.5661483232       11.3535188914        7.6190591073
O        11.3536210613        9.4571498616        0.4081872345
O         5.6707907384        7.5661509714        5.2157219320
O         5.6708436820        9.4571132327        6.8025509323
O        11.3534926191        7.5661666202        1.9959562571
O         9.4571074934        3.7757924555        9.2065122235
O         7.5661810941       13.2371877066        4.4003344957
O         7.5661378394        3.7757913345        7.6192935244
O         9.4571524785       13.2372634570        2.8112984859
O         7.5684192844        0.0026943689        1.9947023501
O         9.4632755439        1.8898939519        6.8016070687
O         0.0027314525        9.4633615977        4.3987533814
O         1.8899237067        7.5684016052        9.2051013860
O         9.4633587300        0.0027283086        5.2162644458
O         7.5683922346        1.8898917986        0.4099294098
O         1.8898928734        9.4632912833        2.8134184322
O         0.0027090335        7.5683914649        7.6203142877
O         7.5683534077        3.7817787203        1.9950848970
O         9.4633818089       13.2360371010        6.8024952622
O        11.3489494745        9.4632482412        4.3978172962
O         5.6728225894        7.5683976879        9.2068309142
O         9.4631513809        3.7817868045        5.2159818597
O         7.5684012140       13.2360610398        0.4090528980
O         5.6728130038        9.4631112026        2.8117772852
O        11.3489018540        7.5683727718        7.6212099058
O         3.7817746132        7.5683499735        7.6199234754
O        13.2360544336        9.4633954774        2.8125283800
O        13.2360464934        7.5684219935        9.2059615998
O         3.7817980499        9.4631438175        4.3990427462
O         9.4631149388        5.6728185011        6.8032345381
O         7.5683986433       11.3489170335        1.9938007894
O         7.5683567736        5.6728399318        0.4081881630
O         9.4632433241       11.3489412315        5.2172024897
O         7.5683522666        7.5661522052        1.9955661010
O         9.4631693363        9.4571339231        6.8027711400
O         7.5661496790        9.4630839341        4.3994601117
O         9.4571287066        7.5683929352        9.2063341663
O         9.4630695381        7.5661800780        5.2155596094
O         7.5683724158        9.4571133339        0.4086999075
O         9.4571238674        9.4631617578        2.8122522142
O         7.5661636527        7.5683403545        7.6194660737
     192
 i =        2, E =     -5789.2657702675
Ti         0.0008573980        0.0008325180        0.0000013717
Ti         1.8903372095        1.8903529541        4.8075112150
Ti         0.0008572083        1.8902140428        2.4016549699
Ti         1.8902389028        0.0008646698        7.2133622449
Ti         0.0008655725        3.7788148929        0.0025314776
Ti         1.8902588761       13.2377961371        4.8053911085
Ti        11.3484412966        1.8903144677        2.4037004714
Ti         5.6729157426        0.0008967639        7.2150149714
Ti         1.8904649454        3.7789187142        7.2108134929
Ti         0.0008667965       13.2377466925        2.4037850504
Ti         5.6729591716        1.8905707273        4.8058548578
Ti        11.3485009626        0.0008277730       -0.0020617387
Ti         3.7788350223        0.0008624332       -0.0025303769
Ti        13.2377919799        1.8902698385        4.8096242307
Ti        13.2377645930        0.0008841044        7.2112455767
Ti         3.7789120714        1.8904650448        2.4042035048
Ti         1.8905733004        5.6729779231        4.8091558098
Ti         0.0008345385       11.3484994935        0.0020383568
Ti         0.0008970135        5.6729132512        2.3999918150
Ti         1.8903183955       11.3484444936        7.2113140630
Ti         0.0008866354        7.5661360772        0.0037395996
Ti         1.8904831572        9.4600507636        4.8078826793
Ti         7.5661444016        1.8905445401        2.4053805504
Ti         9.4600745311        0.0008878553        7.2137346424
Ti         1.8905568212        7.5661477991        7.2096452402
Ti         0.0008779060        9.4600739852        2.4012921489
Ti         9.4600422986        1.8904972423        4.8071365230
Ti         7.5661302895        0.0008768378       -0.0037248094
Ti         3.7789957646        3.7789956935        0.0000050626
Ti        13.2377817525       13.2378014727        4.8075266724
Ti        11.3482282327        5.6729358842        2.4020391569
Ti         5.6729430168       11.3482142558        7.2129814510
Ti        13.2377632467        3.7788679920        7.2087256393
Ti         3.7788592549       13.2377564588        2.4063077290
Ti         5.6730448791        5.6730490996        4.8075137215
Ti        11.3484165943       11.3484270841        0.0000063066
Ti        11.3485265943       13.2377744019        2.4058257244
Ti         5.6729829771        3.7790789811        7.2124120303
Ti         3.7788848678       11.3482824741       -0.0004864013
Ti        13.2377737917        5.6729479013        4.8112946887
Ti         5.6729463691       13.2377698978        4.8037380023
Ti        11.3482812074        3.7788708627        0.0004947996
Ti        13.2377718600       11.3485317078        7.2091974798
Ti         3.7790804338        5.6729829637        2.4026087793
Ti         3.7790607704        7.5660639842        0.0011126481
Ti        13.2377898231        9.4601091921        4.8099925169
Ti         7.5660585464        5.6730091371        2.4037202740
Ti         9.4600264732       11.3483078538        7.2116779248
Ti        13.2377681270        7.5661676522        7.2075183579
Ti         3.7790139725        9.4599096107        2.4038181343
Ti         9.4598798406        5.6730226280        4.8087123934
Ti         7.5661223431       11.3482108058       -0.0016853894
Ti        11.3483068842        9.4600219604        2.4033245611
Ti         5.6730242554        7.5660517319        7.2112906384
Ti         5.6730133046        9.4598770242        4.8062915474
Ti        11.3482105005        7.5661156188        0.0016753355
Ti         9.4599032398        3.7790146907        7.2111909961
Ti         7.5661605898       13.2377573881        2.4075057259
Ti         7.5660656326        3.7790521967       -0.0011190129
Ti         9.4601004137       13.2378061871        4.8050295610
Ti         7.5660435969        7.5660366001        0.0000103964
Ti         9.4599500675        9.4599509072        4.8075079488
Ti         7.5660908582        9.4598568944        2.4049254182
Ti         9.4598608987        7.5660944618        7.2100930472
O         0.0008812203        0.0013190326        1.9980356253
O         1.8850480995        1.8893923936        6.8035881405
O         0.0013771308        1.8849033212        4.4012526939
O         1.8893328365        0.0009800076        9.2078843974
O         1.8849049881        0.0013911034        5.2137750032
O         0.0009738359        1.8893274742        0.4071372094
O         1.8893841582        1.8850579451        2.8114357899
O         0.0013152528        0.0008763194        7.6169838859
O         0.0010396056        3.7788681500        1.9986038503
O         1.8849202154       13.2372293994        6.8049855740
O        11.3493494121        1.8850321181        4.3997897944
O         5.6716970658        0.0010943400        9.2105464447
O         1.8851021784        3.7789491937        5.2131577933
O         0.0008849170       13.2372830138        0.4057322633
O         5.6717499284        1.8851964148        2.8087308181
O        11.3493846353        0.0009548067        7.6184374697
O         3.7788666482        0.0010332620        7.6164101011
O        13.2372197208        1.8849265622        2.8100346546
O        13.2372730263        0.0008858196        9.2092820646
O         3.7789666990        1.8851093062        4.4018529664
O         1.8851900101        5.6717182385        6.8062926073
O         0.0009650517       11.3493823877        1.9965709619
O         0.0010864074        5.6717214877        0.4044748550
O         1.8850378677       11.3493451917        5.2152292461
O         0.0010769162        7.5673927069        1.9992551543
O         1.8851210887        9.4599835138        6.8055518119
O         7.5673784963        1.8851740784        4.4025014604
O         9.4600667847        0.0010466847        9.2098209002
O         1.8851708441        7.5673824840        5.2125224119
O         0.0010427628        9.4600268974        0.4052082832
O         9.4599742345        1.8851233766        2.8094690197
O         7.5674067988        0.0010693875        7.6157813643
O         3.7689073839        0.0015023661        1.9973550348
O        13.2375103850        1.8893294017        6.8041091072
O         0.0015780413        5.6659146490        4.4004632687
O         1.8893652563       11.3534814284        9.2073664265
O        13.2375828958        0.0013190617        5.2132330047
O         3.7692459205        1.8895586375        0.4077293257
O         1.8896605935        5.6661238898        2.8120650561
O         0.0013787543       11.3535876877        7.6174959756
O        11.3534770902        1.8893804093        0.4076539471
O         5.6659275436        0.0015683504        5.2145490864
O         5.6661275477        1.8896439986        6.8029510349
O        11.3535859266        0.0013740822        1.9975186504
O         1.8895442858        3.7692517061        9.2072921045
O         0.0013220113       13.2375823087        4.4017863934
O         0.0014958121        3.7688884211        7.6176560482
O         1.8893242184       13.2375209040        2.8109027896
O         3.7695656501        3.7791242624        1.9982219138
O        13.2375932310       13.2372884991        6.8055229928
O        11.3490806015        5.6660050214        4.3991358936
O         5.6717307030       11.3533639241        9.2100725992
O        13.2374273913        3.7788961326        5.2126672386
O         3.7689354255       13.2371059911        0.4064164013
O         5.6718334352        5.6662434743        2.8089163854
O        11.3493537996       11.3534701534        7.6189613516
O        11.3535908370       13.2372125809        0.4062458166
O         5.6660998720        3.7792524721        5.2134431680
O         3.7789464295       11.3534237235        7.6169031337
O        13.2370510634        5.6660361790        2.8108200160
O         5.6660318362       13.2370637499        6.8042018326
O        11.3534171051        3.7789389555        1.9981300671
O        13.2372361309       11.3535901598        9.2087688283
O         3.7792335381        5.6661148629        4.4015781080
O         5.6662453529        5.6718461929        6.8061197354
O        11.3534679776       11.3493505115        1.9960689600
O        13.2371120014        3.7689583334        9.2086080555
O         3.7788708693       13.2374243131        4.4023553806
O        11.3533682169        5.6717163866        0.4049503126
O         5.6660000763       11.3490887670        5.2158869000
O         3.7791468185        3.7695516300        7.6168183492
O        13.2372889443       13.2375943585        2.8095044598
O        13.2374998469       11.3493894357        5.2146972761
O         3.7698071606        5.6717691148        0.4048386232
O         5.6717248873       13.2374117226        2.8082372698
O        11.3491875796        3.7691763993        7.6190455087
O         3.7691855474       11.3491950339        1.9959867905
O        13.2374091791        5.6717304455        6.8067910965
O        11.3493930001       13.2374930667        4.4003236081
O         5.6718090593        3.7698078335        9.2101744713
O         3.7697536607        7.5672939647        1.9988683267
O        13.2374445092        9.4600571603        6.8060511747
O         7.5672986499        5.6661405757        4.4023227233
O         9.4599700524       11.3534312296        9.2093205809
O        13.2373941221        7.5674015331        5.2120240713
O         3.7695755890        9.4598032151        0.4056166547
O         9.4596899633        5.6662062923        2.8097541565
O         7.5673579900       11.3533625670        7.6162498881
O        11.3534405392        9.4599946786        0.4056916772
O         5.6661425070        7.5672631100        5.2126951969
O         5.6661927638        9.4596773681        6.8052585818
O        11.3533643386        7.5673783331        1.9987668966
O         9.4597782618        3.7695913630        9.2093994236
O         7.5674016378       13.2373849965        4.4029987619
O         7.5672908093        3.7697492864        7.6161403777
O         9.4600589387       13.2374493575        2.8089753119
O         7.5736647338        0.0015656376        1.9967298582
O         9.4694952478        1.8895504585        6.8035555939
O         0.0015060212        9.4697739252        4.4011323486
O         1.8896645991        7.5735841292        9.2067286549
O         9.4697767376        0.0015032889        5.2138930365
O         7.5735660602        1.8896407058        0.4082905751
O         1.8895521004        9.4695002953        2.8114655097
O         0.0015815597        7.5736152578        7.6182922626
O         7.5734345304        3.7792400344        1.9978390136
O         9.4698034067       13.2371146445        6.8048634757
O        11.3491897121        9.4694779523        4.3997479916
O         5.6718077981        7.5734550545        9.2098785363
O         9.4691211139        3.7791153919        5.2130471866
O         7.5736424832       13.2370522226        0.4070387103
O         5.6717764115        9.4689350754        2.8085886491
O        11.3490724342        7.5735286095        7.6196120618
O         3.7792326237        7.5734214116        7.6171740345
O        13.2371205097        9.4698130186        2.8101543877
O        13.2370377318        7.5736783015        9.2079677449
O         3.7791255907        9.4691071307        4.4019693892
O         9.4689361836        5.6717814743        6.8064206601
O         7.5735689401       11.3490829096        1.9954048285
O         7.5733877672        5.6718381016        0.4051383441
O         9.4694784539       11.3491797875        5.2152663794
O         7.5733719183        7.5672746260        1.9985874101
O         9.4691521307        9.4598272076        6.8056657219
O         7.5672894990        9.4689133416        4.4026232005
O         9.4596900547        7.5735027529        9.2090422161
O         9.4689028423        7.5673317238        5.2123938386
O         7.5734659568        9.4596753495        0.4059881640
O         9.4598101766        9.4691517791        2.8093635390
O         7.5672920192        7.5733516667        7.6164450653
     192
 i =        3, E =     -5789.2660204042
Ti         0.0004467970        0.0004217509        0.0000015533
Ti         1.8896373153        1.8896513854        4.8075106042
Ti         0.0004857136        1.8895455480        2.4020994777
Ti         1.8895690805        0.0004857362        7.2129136948
Ti         0.0005320855        3.7768668664        0.0026025275
Ti         1.8895871749       13.2381305668        4.8058330600
Ti        11.3490926737        1.8896187898        2.4037053682
Ti         5.6718221325        0.0006341289        7.2153853190
Ti         1.8897313179        3.7769846538        7.2102973650
Ti         0.0004554950       13.2381231267        2.4037877167
Ti         5.6718628030        1.8898996154        4.8050203681
Ti        11.3491249112        0.0004549002       -0.0016185001
Ti         3.7768850117        0.0005271306       -0.0025973663
Ti        13.2381279169        1.8895962343        4.8091845430
Ti        13.2381437600        0.0004728189        7.2112444124
Ti         3.7769800613        1.8897348663        2.4047199837
Ti         1.8899003594        5.6718782661        4.8099897455
Ti         0.0004584084       11.3491254396        0.0015984843
Ti         0.0006346876        5.6718188975        2.3996243104
Ti         1.8896210212       11.3490913109        7.2113129216
Ti         0.0006242433        7.5673235488        0.0040826752
Ti         1.8897484454        9.4619618064        4.8083773525
Ti         7.5673246712        1.8898735452        2.4061890131
Ti         9.4620122097        0.0005459085        7.2137794897
Ti         1.8898801878        7.5673246098        7.2088361540
Ti         0.0005359068        9.4620101401        2.4012432582
Ti         9.4619543519        1.8897651864        4.8066409057
Ti         7.5673170255        0.0006164172       -0.0040703815
Ti         3.7770968897        3.7770956879       -0.0000003707
Ti        13.2381598761       13.2381778274        4.8075224367
Ti        11.3488517926        5.6718449556        2.4012130008
Ti         5.6718511873       11.3488372030        7.2138067597
Ti        13.2380568033        3.7769143827        7.2086536415
Ti         3.7769054221       13.2380499791        2.4063773029
Ti         5.6719832848        5.6719854134        4.8075091757
Ti        11.3490644973       11.3490747181        0.0000029746
Ti        11.3491471425       13.2381132480        2.4053886532
Ti         5.6718872601        3.7772776506        7.2127313952
Ti         3.7769542811       11.3489669428       -0.0010001352
Ti        13.2379971949        5.6718461288        4.8116596686
Ti         5.6718450817       13.2379927243        4.8033679846
Ti        11.3489681469        3.7769430984        0.0010009303
Ti        13.2381059025       11.3491522666        7.2096376160
Ti         3.7772764482        5.6718871003        2.4022921639
Ti         3.7772569363        7.5672515940        0.0014126559
Ti        13.2380842180        9.4620450908        4.8100411318
Ti         7.5671966755        5.6719568087        2.4036999615
Ti         9.4619401869       11.3489871838        7.2121706798
Ti        13.2379918347        7.5673499614        7.2071766365
Ti         3.7771056014        9.4617900535        2.4038395916
Ti         9.4616567064        5.6719181767        4.8090561617
Ti         7.5673012136       11.3488407105       -0.0024863620
Ti        11.3489869540        9.4619369885        2.4028349056
Ti         5.6719659333        7.5671898826        7.2113170313
Ti         5.6719065790        9.4616550564        4.8059503070
Ti        11.3488426492        7.5672962858        0.0024766863
Ti         9.4617879556        3.7771118664        7.2111727452
Ti         7.5673456328       13.2379814532        2.4078502148
Ti         7.5672518805        3.7772525231       -0.0014179859
Ti         9.4620347399       13.2381028436        4.8049805228
Ti         7.5671847770        7.5671825081        0.0000060136
Ti         9.4618305273        9.4618355512        4.8075058805
Ti         7.5672749297        9.4616407657        2.4052478668
Ti         9.4616459952        7.5672771738        7.2097715957
O         0.0013233332        0.0017553504        1.9975724664
O         1.8848644485        1.8880969379        6.8039600803
O         0.0017675270        1.8846284448        4.4018039241
O         1.8880268669        0.0013956166        9.2072486848
O         1.8846282047        0.0017730548        5.2132184807
O         0.0013979427        1.8880245776        0.4077711642
O         1.8880967296        1.8848638080        2.8110615082
O         0.0017560835        0.0013293821        7.6174498263
O         0.0014298396        3.7777287090        1.9973449143
O         1.8846189328       13.2367986088        6.8055627755
O        11.3506042468        1.8848641229        4.4002246417
O         5.6713070100        0.0014283049        9.2101690839
O         1.8850019346        3.7777688327        5.2134101542
O         0.0013205857       13.2368102284        0.4061734859
O         5.6713516934        1.8850602924        2.8081251081
O        11.3506687600        0.0014031165        7.6190159977
O         3.7777284426        0.0014342058        7.6176684119
O        13.2367987066        1.8846205044        2.8094551844
O        13.2368072789        0.0013169416        9.2088414285
O         3.7777831944        1.8850013442        4.4016036838
O         1.8850621116        5.6713237674        6.8068941280
O         0.0013988642       11.3506661404        1.9959973995