     192
 i =        1, E =     -5781.8148555911
Ti        -0.0006953730       -0.0007061869        0.0000004603
Ti         1.8927239379        1.8927427250        4.8075092626
Ti        -0.0006650050        1.8927270825        2.4026315513
Ti         1.8927429315       -0.0006653945        7.2123782404
Ti        -0.0006451632        3.7811857735        0.0017009697
Ti         1.8927575304       13.2394805621        4.8063753772
Ti        11.3461162689        1.8927240898        2.4037175817
Ti         5.6738679577       -0.0006349042        7.2133677289
Ti         1.8926942058        3.7812299020        7.2106873536
Ti        -0.0006909986       13.2394794307        2.4037774731
Ti         5.6738781062        1.8927027228        4.8065229885
Ti        11.3460822267       -0.0006777339       -0.0010955318
Ti         3.7811922894       -0.0006435015       -0.0016939367
Ti        13.2394678213        1.8927499858        4.8086376848
Ti        13.2394921860       -0.0006918752        7.2112560622
Ti         3.7812247448        1.8927109026        2.4043334076
Ti         1.8926992467        5.6738806819        4.8084884358
Ti        -0.0006768547       11.3460905141        0.0010850354
Ti        -0.0006372437        5.6738627256        2.4016401035
Ti         1.8927334909       11.3461120391        7.2112963763
Ti        -0.0006318096        7.5650766583        0.0020966032
Ti         1.8927251538        9.4576943151        4.8080559747
Ti         7.5650819675        1.8926917242        2.4047296596
Ti         9.4577096320       -0.0006464641        7.2129398228
Ti         1.8926946343        7.5650789855        7.2103004002
Ti        -0.0006414707        9.4577031930        2.4020822943
Ti         9.4576920212        1.8927238900        4.8069665062
Ti         7.5650646429       -0.0006321184       -0.0020946908
Ti         3.7812189116        3.7812231911       -0.0000005342
Ti        13.2394938512       13.2395032742        4.8075123744
Ti        11.3461577470        5.6738722722        2.4027427124
Ti         5.6738778281       11.3461428615        7.2122791616
Ti        13.2394430412        3.7812120778        7.2095663908
Ti         3.7812065956       13.2394354156        2.4054629468
Ti         5.6738823742        5.6738887296        4.8075132397
Ti        11.3461048257       11.3461086573        0.0000005656
Ti        11.3460969159       13.2394589639        2.4048658243
Ti         5.6738647893        3.7812227863        7.2116909539
Ti         3.7812222153       11.3461454751       -0.0006016370
Ti        13.2394388080        5.6738761035        4.8096335349
Ti         5.6738876818       13.2394424125        4.8053980488
Ti        11.3461293561        3.7812147985        0.0005990481
Ti        13.2394655064       11.3460872724        7.2101633935
Ti         3.7812204113        5.6738680655        2.4033448531
Ti         3.7812241227        7.5650836444        0.0004048165
Ti        13.2394584652        9.4577176823        4.8091924434
Ti         7.5650830358        5.6738642208        2.4037363180
Ti         9.4576868227       11.3461294426        7.2118378851
Ti        13.2394332596        7.5650749568        7.2091706539
Ti         3.7812240565        9.4576745347        2.4037799045
Ti         9.4576965477        5.6738946638        4.8079530249
Ti         7.5650789334       11.3461561720       -0.0009967313
Ti        11.3461412608        9.4576856366        2.4031790174
Ti         5.6738687946        7.5650740797        7.2112741434
Ti         5.6738953282        9.4576961574        4.8070585547
Ti        11.3461496776        7.5650735281        0.0009912211
Ti         9.4576805147        3.7812167156        7.2112373356
Ti         7.5650756573       13.2394326602        2.4058544642
Ti         7.5650701848        3.7812185566       -0.0004076805
Ti         9.4577172902       13.2394669998        4.8058299504
Ti         7.5650771282        7.5650807434        0.0000030104
Ti         9.4577032073        9.4577044970        4.8075086639
Ti         7.5650695202        9.4576882505        2.4041830682
Ti         9.4576804082        7.5650706923        7.2108425281
O         0.0012962003        0.0026771786        1.9929637027
O         1.8845003448        1.8897866700        6.7986620644
O         0.0026520922        1.8842855743        4.3958964038
O         1.8897191942        0.0012974023        9.2031720779
O         1.8842846246        0.0026690873        5.2191217335
O         0.0012851675        1.8897142532        0.4118377122
O         1.8897759478        1.8844838603        2.8163657754
O         0.0026845150        0.0012968593        7.6220557153
O         0.0012818523        3.7816770075        1.9929141906
O         1.8842974054       13.2360978128        6.7996405858
O        11.3490453671        1.8844501090        4.3948693395
O         5.6727838658        0.0012817844        9.2045412183
O         1.8846993344        3.7816982238        5.2190317716
O         0.0013136200       13.2360664264        0.4108038127
O         5.6728112803        1.8847795681        2.8148862915
O        11.3491010491        0.0012787398        7.6231271176
O         3.7816776350        0.0012793485        7.6221116328
O        13.2361033362        1.8843018036        2.8153835759
O        13.2360611889        0.0013160159        9.2042267029
O         3.7817004558        1.8846963955        4.3959933262
O         1.8848095396        5.6727995739        6.8001317459
O         0.0012831478       11.3490967826        1.9918871046
O         0.0012924699        5.6727981987        0.4104775888
O         1.8844460724       11.3490546011        5.2201433938
O         0.0012788287        7.5661890127        1.9932644766
O         1.8846950190        9.4572117060        6.7997212820
O         7.5661892883        1.8847790698        4.3963642134
O         9.4572236082        0.0012834400        9.2041618872
O         1.8847646005        7.5661852284        5.2186633116
O         0.0012825871        9.4572163740        0.4108622097
O         9.4572045873        1.8846944573        2.8152982895
O         7.5662022748        0.0012772927        7.6217645024
O         3.7750787747        0.0026343947        1.9916618719
O        13.2372087422        1.8897227565        6.7994154121
O         0.0026242082        5.6705670971        4.3951122231
O         1.8897717109       11.3542050731        9.2024443093
O        13.2371456927        0.0026838060        5.2182943755
O         3.7751894568        1.8898363537        0.4130173955
O         1.8898495887        5.6706147607        2.8170298272
O         0.0026521598       11.3544129083        7.6228450559
O        11.3542209079        1.8897759751        0.4125762497
O         5.6705597648        0.0026259475        5.2198950877
O         5.6706143247        1.8898432097        6.7979819550
O        11.3544149644        0.0026494585        1.9921797731
O         1.8898317745        3.7751867302        9.2020040991
O         0.0026858164       13.2371437616        4.3967332987
O         0.0026268150        3.7750564954        7.6233644628
O         1.8897203206       13.2372296089        2.8155962759
O         3.7752854095        3.7817136239        1.9919563801
O        13.2371782180       13.2360720312        6.8004572725
O        11.3489774845        5.6705753311        4.3941966382
O         5.6728057886       11.3538987132        9.2039038421
O        13.2372090194        3.7816862610        5.2183546498
O         3.7750766739       13.2361278860        0.4121070784
O         5.6728085587        5.6706146176        2.8152794774
O        11.3490536863       11.3542425089        7.6238729617
O        11.3544110948       13.2360914439        0.4115975067
O         5.6705895688        3.7817265915        5.2195216906
O         3.7817016591       11.3539963437        7.6227664135
O        13.2361369361        5.6705944859        2.8161595349
O         5.6705915121       13.2361424583        6.7988685379
O        11.3539836198        3.7816903244        1.9922568960
O        13.2360985341       11.3544093951        9.2034268847
O         3.7817129001        5.6706008639        4.3955182755
O         5.6706198318        5.6728147689        6.7997488142
O        11.3542168698       11.3490510706        1.9911471118
O        13.2361273677        3.7750961087        9.2029204740
O         3.7816865937       13.2371847601        4.3966702255
O        11.3539151420        5.6727983836        0.4111220488
O         5.6705673090       11.3489846812        5.2208241787
O         3.7817165622        3.7752698386        7.6230648757
O        13.2360734000       13.2371837691        2.8145535207
O        13.2371823744       11.3491040236        5.2193736094
O         3.7753296798        5.6728066007        0.4113492191
O         5.6727966924       13.2372548221        2.8142462615
O        11.3489992256        3.7751595879        7.6243066932
O         3.7751565779       11.3489916193        1.9907133415
O        13.2372371835        5.6727992492        6.8007804432
O        11.3491027512       13.2371743037        4.3956530637
O         5.6728126825        3.7753279560        9.2036755657
O         3.7753118021        7.5661683797        1.9923863853
O        13.2372420903        9.4572185974        6.8003974418
O         7.5661956174        5.6705878262        4.3959755423
O         9.4572052292       11.3539936504        9.2034916994
O        13.2372186448        7.5661976284        5.2180147339
O         3.7752694567        9.4571992657        0.4118336058
O         9.4571962141        5.6706198240        2.8157903714
O         7.5661813061       11.3539239720        7.6223966393
O        11.3540077731        9.4572125712        0.4115302837
O         5.6705825104        7.5661796148        5.2190403954
O         5.6706176598        9.4571838667        6.7992263892
O        11.3539030985        7.5661888009        1.9926244648
O         9.4571814470        3.7752799353        9.2031867737
O         7.5662016972       13.2371950350        4.3970129413
O         7.5661694658        3.7753101130        7.6226206287
O         9.4572199055       13.2372483541        2.8146248270
O         7.5686526543        0.0026159475        1.9913701735
O         9.4637656188        1.8898318070        6.7982634221
O         0.0026468469        9.4638654875        4.3954251966
O         1.8898580600        7.5686162849        9.2017528912
O         9.4638596447        0.0026425704        5.2195962960
O         7.5686242130        1.8898481488        0.4132737663
O         1.8898312048        9.4637812685        2.8167626360
O         0.0026234413        7.5686446591        7.6236399798
O         7.5685978304        3.7817158103        1.9917628909
O         9.4638740607       13.2361184286        6.7991649506
O        11.3490017767        9.4637575917        4.3944727108
O         5.6728059525        7.5686164144        9.2035094345
O         9.4636540350        3.7817202155        5.2193099556
O         7.5686290797       13.2361421197        0.4123789131
O         5.6727957596        9.4636114945        2.8151007823
O        11.3489669192        7.5686226155        7.6245569415
O         3.7817129188        7.5686025998        7.6232548214
O        13.2361336055        9.4638829093        2.8158563111
O        13.2361331349        7.5686383889        9.2026334716
O         3.7817257504        9.4636533240        4.3957132684
O         9.4636139102        5.6727993126        6.7999156317
O         7.5686312350       11.3489758904        1.9904582553
O         7.5686064746        5.6728127741        0.4115082675
O         9.4637508997       11.3489953769        5.2205496026
O         7.5686061648        7.5661780106        1.9922412000
O         9.4636667414        9.4571916059        6.7994428242
O         7.5661765744        9.4635951195        4.3961425312
O         9.4571926003        7.5686158137        9.2030037698
O         9.4635816940        7.5661990896        5.2188777155
O         7.5686095511        9.4571872796        0.4120277326
O         9.4571894045        9.4636564827        2.8155782913
O         7.5661824313        7.5685969922        7.6227847291
     192
 i =        2, E =     -5781.8153997316
Ti         0.0005882127        0.0005727709        0.0000009122
Ti         1.8905023695        1.8905179967        4.8075086806
Ti         0.0005855655        1.8904149189        2.4016141792
Ti         1.8904331787        0.0005892475        7.2134015604
Ti         0.0005915015        3.7785934952        0.0027909320
Ti         1.8904486201       13.2380456368        4.8053467649
Ti        11.3482547849        1.8904944496        2.4036902858
Ti         5.6728700107        0.0005935300        7.2153272690
Ti         1.8905903703        3.7786638018        7.2105990536
Ti         0.0005905162       13.2380160659        2.4037864178
Ti         5.6728998249        1.8906398101        4.8055930205
Ti        11.3483075336        0.0005707431       -0.0020898929
Ti         3.7786047712        0.0005960495       -0.0027851678
Ti        13.2380410473        1.8904457338        4.8096690308
Ti        13.2380293372        0.0005911248        7.2112435313
Ti         3.7786643058        1.8905995325        2.4044191865
Ti         1.8906405136        5.6729102367        4.8094214526
Ti         0.0005753333       11.3483108290        0.0020774774
Ti         0.0005926440        5.6728683785        2.3996802066
Ti         1.8905030524       11.3482550622        7.2113198840
Ti         0.0005939828        7.5662081117        0.0040407601
Ti         1.8906091048        9.4602904100        4.8080969962
Ti         7.5662040598        1.8906310445        2.4056410725
Ti         9.4603215825        0.0005977593        7.2139869910
Ti         1.8906333147        7.5661986438        7.2093853148
Ti         0.0005996364        9.4603196449        2.4010399382
Ti         9.4602867197        1.8906131985        4.8069228148
Ti         7.5661987702        0.0005918348       -0.0040346115
Ti         3.7787139677        3.7787208239        0.0000015619
Ti        13.2380390019       13.2380480836        4.8075204408
Ti        11.3481364518        5.6728905672        2.4017748820
Ti         5.6728965915       11.3481213656        7.2132465028
Ti        13.2380285828        3.7786201309        7.2084636497
Ti         3.7786199544       13.2380253999        2.4065678440
Ti         5.6729476151        5.6729537991        4.8075123026
Ti        11.3482477243       11.3482530506        0.0000024396
Ti        11.3483245422       13.2380321643        2.4058654160
Ti         5.6729167060        3.7787354640        7.2124488670
Ti         3.7786511197       11.3481633860       -0.0007164002
Ti        13.2380462938        5.6728836669        4.8116065773
Ti         5.6728918486       13.2380444009        4.8034232487
Ti        11.3481501635        3.7786430290        0.0007181333
Ti        13.2380372806       11.3483147534        7.2091595494
Ti         3.7787340322        5.6729215110        2.4025767543
Ti         3.7787314017        7.5661619225        0.0011518956
Ti        13.2380476076        9.4603367420        4.8102496501
Ti         7.5661564795        5.6729287052        2.4037193186
Ti         9.4602810148       11.3481614087        7.2119046553
Ti        13.2380418360        7.5662139692        7.2072116815
Ti         3.7787242573        9.4602100952        2.4038207470
Ti         9.4602151123        5.6729450600        4.8087581809
Ti         7.5661970547       11.3481334543       -0.0019459977
Ti        11.3481675697        9.4602762107        2.4031046329
Ti         5.6729339705        7.5661474741        7.2112922075
Ti         5.6729430130        9.4602141887        4.8062492301
Ti        11.3481245722        7.5661915152        0.0019401854
Ti         9.4602042979        3.7787162665        7.2111908897
Ti         7.5662178426       13.2380408001        2.4078115109
Ti         7.5661525467        3.7787280035       -0.0011526286
Ti         9.4603361284       13.2380575874        4.8047734934
Ti         7.5661460439        7.5661514228        0.0000057083
Ti         9.4602368496        9.4602353757        4.8075090279
Ti         7.5661649199        9.4602037512        2.4049698241
Ti         9.4601985020        7.5661635232        7.2100504766
O         0.0010844172        0.0017767731        1.9929015947
O         1.8840526814        1.8890642913        6.7979025685
O         0.0018203639        1.8839597516        4.3959127552
O         1.8890038267        0.0011341556        9.2023822626
O         1.8839621756        0.0018279532        5.2191122569
O         0.0011295680        1.8889982156        0.4126351243
O         1.8890542389        1.8840529644        2.8171216836
O         0.0017781434        0.0010845435        7.6221170590
O         0.0011562895        3.7787625130        1.9934134569
O         1.8839764610       13.2367678644        6.7996423845
O        11.3496604135        1.8840422185        4.3940870634
O         5.6715775905        0.0011866245        9.2054631249
O         1.8840437964        3.7788366494        5.2184983017
O         0.0010916499       13.2368011677        0.4108739277
O         5.6716191175        1.8840970341        2.8139504044
O        11.3497061775        0.0011222775        7.6239498785
O         3.7787601138        0.0011542897        7.6216071731
O        13.2367657612        1.8839758621        2.8153831722
O        13.2367995504        0.0010891337        9.2041451653
O         3.7788417212        1.8840538359        4.3965179755
O         1.8841022513        5.6715976619        6.8010743700
O         0.0011253244       11.3497075796        1.9910655621
O         0.0011866333        5.6715914875        0.4095577651
O         1.8840442705       11.3496634470        5.2209268436
O         0.0011792575        7.5675318647        1.9941613775
O         1.8840589055        9.4601021221        6.8002085384
O         7.5675188205        1.8840942460        4.3972782945
O         9.4601732664        0.0011556864        9.2046194107
O         1.8840873184        7.5675178804        5.2177475887
O         0.0011557998        9.4601540763        0.4104067815
O         9.4600899027        1.8840542628        2.8148116180
O         7.5675428909        0.0011792291        7.6208690020
O         3.7679859712        0.0019017011        1.9918393939
O        13.2372967799        1.8890002145        6.7986134060
O         0.0019395775        5.6654038064        4.3948477764
O         1.8890480713       11.3544485575        9.2016865822
O        13.2373233922        0.0017800145        5.2183609624
O         3.7682248233        1.8891792826        0.4135827320
O         1.8892243435        5.6655270984        2.8179854282
O         0.0018154892       11.3545258437        7.6228299892
O        11.3544512974        1.8890520897        0.4133277411
O         5.6653975888        0.0019343894        5.2201607003
O         5.6655318074        1.8892113109        6.7970291330
O        11.3545228570        0.0018173546        1.9921943069
O         1.8891708974        3.7682264372        9.2014388957
O         0.0017809583       13.2373232583        4.3966565880
O         0.0018963554        3.7679717630        7.6231783068
O         1.8890009581       13.2373073776        2.8164012675
O         3.7684167581        3.7789623360        1.9927493165
O        13.2373350827       13.2368113167        6.8003787336
O        11.3495076208        5.6654639685        4.3932054948
O         5.6716050623       11.3544121769        9.2048555106
O        13.2372572411        3.7787733033        5.2178572925
O         3.7679906195       13.2366918615        0.4119396438
O         5.6716586287        5.6655473573        2.8142273765
O        11.3496712754       11.3544521270        7.6246501399
O        11.3545179794       13.2367589614        0.4115871553
O         5.6654829075        3.7790290989        5.2189404437
O         3.7788351794       11.3544609289        7.6222305490
O        13.2366607583        5.6654624034        2.8164363350
O         5.6654609348       13.2366714014        6.7985848014
O        11.3544524215        3.7788231305        1.9927958732
O        13.2367693975       11.3545159925        9.2034324763
O         3.7790143310        5.6655035988        4.3960872627
O         5.6655562278        5.6716707023        6.8008034468
O        11.3544440733       11.3496686055        1.9903749422
O        13.2366952054        3.7680081994        9.2030844306
O         3.7787629793       13.2372503440        4.3971661511
O        11.3544209940        5.6715974374        0.4101696810
O         5.6654492263       11.3495112564        5.2218180788
O         3.7789760242        3.7684052412        7.6222818687
O        13.2368081629       13.2373348656        2.8146414424
O        13.2372835059       11.3497090295        5.2202025613
O         3.7685555529        5.6716395463        0.4101617014
O         5.6715943767       13.2372526709        2.8133236261
O        11.3495538913        3.7681959600        7.6249075097
O         3.7681982644       11.3495584737        1.9901173404
O        13.2372478857        5.6715916103        6.8017023213
O        11.3497120261       13.2372782910        4.3948204315
O         5.6716532821        3.7685531688        9.2048563942
O         3.7685328698        7.5674650395        1.9935485363
O        13.2372720351        9.4601681937        6.8008520065
O         7.5674765209        5.6654935108        4.3970034010
O         9.4600946018       11.3544550568        9.2039832861
O        13.2372350985        7.5675370050        5.2171171427
O         3.7684045016        9.4599647451        0.4110930052
O         9.4599140221        5.6655430183        2.8152653050
O         7.5675098806       11.3544247124        7.6214692325
O        11.3544673730        9.4601058050        0.4110340534
O         5.6654863976        7.5674536643        5.2180136990
O         5.6655441076        9.4599028970        6.7997502003
O        11.3544202285        7.5675198438        1.9935501094
O         9.4599527703        3.7684127214        9.2039237888
O         7.5675393349       13.2372264731        4.3979098376
O         7.5674570534        3.7685308003        7.6214632745
O         9.4601689071       13.2372796202        2.8141744869
O         7.5742620530        0.0019318505        1.9911169169
O         9.4704971718        1.8891741334        6.7977066919
O         0.0019038570        9.4707134088        4.3956198833
O         1.8892250617        7.5741657941        9.2008074789
O         9.4707107848        0.0019000555        5.2194030550
O         7.5741762998        1.8892157740        0.4142110246
O         1.8891723108        9.4705019960        2.8173173537
O         0.0019402873        7.5742470767        7.6238963135
O         7.5741276214        3.7790241065        1.9923463343
O         9.4707265050       13.2366966539        6.7993453274
O        11.3495567835        9.4704882788        4.3938855319
O         5.6716517191        7.5741467556        9.2045673450
O         9.4702906139        3.7789581649        5.2185180244
O         7.5742229752       13.2366614244        0.4126488041
O         5.6716370718        9.4701661208        2.8139100859
O        11.3495015860        7.5741722210        7.6255402181
O         3.7790181691        7.5741378378        7.6226705431
O        13.2367036746        9.4707333406        2.8156734116
O        13.2366544158        7.5742392560        9.2023590673
O         3.7789616396        9.4702837271        4.3965017084
O         9.4701693860        5.6716416136        6.8011018114
O         7.5741857621       11.3495101828        1.9894770562
O         7.5741274683        5.6716636536        0.4104529014
O         9.4704842263       11.3495451471        5.2211325723
O         7.5741205050        7.5674582642        1.9932690586
O         9.4703099966        9.4599792076        6.8001888725
O         7.5674564125        9.4701557407        4.3973020633
O         9.4599089899        7.5741584202        9.2035302164
O         9.4701426133        7.5674878897        5.2177146540
O         7.5741455591        9.4599020693        0.4114968844
O         9.4599710837        9.4703054527        2.8148390825
O         7.5674672190        7.5741093539        7.6217590316
     192
 i =        3, E =     -5781.8157096319
Ti         0.0006868826        0.0006724998        0.0000003398
Ti         1.8888938673        1.8889073905        4.8075073616
Ti         0.0007150566        1.8888200782        2.4020245766
Ti         1.8888386979        0.0007147835        7.2129916466
Ti         0.0007549415        3.7757205916        0.0028912670
Ti         1.8888538337       13.2378324946        4.8057558086
Ti        11.3497888961        1.8888863376        2.4036953150
Ti         5.6712516782        0.0007880124        7.2159703016
Ti         1.8889753953        3.7758023276        7.2100547525
Ti         0.0006893769       13.2378342238        2.4037871024
Ti         5.6712833611        1.8890652341        4.8044993293
Ti        11.3498273448        0.0006985273       -0.0016845264
Ti         3.7757307703        0.0007595733       -0.0028853403
Ti        13.2378296437        1.8888509459        4.8092618224
Ti        13.2378505211        0.0006918622        7.2112433633
Ti         3.7758058755        1.8889849487        2.4049635066
Ti         1.8890657831        5.6712947433        4.8105141808
Ti         0.0007032074       11.3498318737        0.0016706053
Ti         0.0007880947        5.6712508432        2.3990391002
Ti         1.8888952031       11.3497872685        7.2113186481
Ti         0.0007904332        7.5679641011        0.0046485361
Ti         1.8889927771        9.4631304902        4.8086102202
Ti         7.5679582190        1.8890563423        2.4066988915
Ti         9.4631762678        0.0007570010        7.2140568677
Ti         1.8890565180        7.5679512584        7.2083264315
Ti         0.0007568535        9.4631744244        2.4009702764
Ti         9.4631268877        1.8890002364        4.8064075737
Ti         7.5679554687        0.0007886206       -0.0046413325
Ti         3.7759015079        3.7759077558       -0.0000003100
Ti        13.2378609174       13.2378681672        4.8075208559
Ti        11.3496374001        5.6712775242        2.4006850200
Ti         5.6712820689       11.3496217986        7.2143343701
Ti        13.2377771897        3.7757447015        7.2083626721
Ti         3.7757451934       13.2377756826        2.4066668264
Ti         5.6713515505        5.6713556773        4.8075089933
Ti        11.3497801919       11.3497851283        0.0000011795
Ti        11.3498431174       13.2378220315        2.4054598317
Ti         5.6713015330        3.7759651007        7.2129551369
Ti         3.7757891012       11.3497031880       -0.0012569632
Ti        13.2377662669        5.6712628526        4.8122457367
Ti         5.6712694810       13.2377635763        4.8027811267
Ti        11.3496908419        3.7757829417        0.0012565108
Ti        13.2378247837       11.3498327916        7.2095661980
Ti         3.7759628545        5.6713067886        2.4020675097
Ti         3.7759603626        7.5679137963        0.0016323888
Ti        13.2377991505        9.4631918141        4.8103194327
Ti         7.5678858636        5.6713380639        2.4036937023
Ti         9.4631202962       11.3496988809        7.2124141057
Ti        13.2377611312        7.5679720918        7.2066045146
Ti         3.7759075637        9.4630007560        2.4038520337
Ti         9.4629605391        5.6713247677        4.8093020363
Ti         7.5679461817       11.3496367667       -0.0030010628
Ti        11.3497046894        9.4631153411        2.4025951302
Ti         5.6713410361        7.5678776213        7.2113220114
Ti         5.6713200262        9.4629607247        4.8057070287
Ti        11.3496293041        7.5679417377        0.0029937743
Ti         9.4629945788        3.7759037019        7.2111595242
Ti         7.5679766363       13.2377593721        2.4084201619
Ti         7.5679059454        3.7759593667       -0.0016333771
Ti         9.4631900679       13.2378132309        4.8047023694
Ti         7.5678755956        7.5678814973        0.0000042734
Ti         9.4630278327        9.4630289637        4.8075076093
Ti         7.5679217605        9.4629494930        2.4054841491
Ti         9.4629465907        7.5679191012        7.2095356118
O         0.0014036587        0.0016822661        1.9923943721
O         1.8845602384        1.8876380426        6.7981377195
O         0.0016953516        1.8844476726        4.3967077447
O         1.8875723677        0.0014613277        9.2013669077
O         1.8844495580        0.0016979186        5.2183173798
O         0.0014612167        1.8875709689        0.4136540778
O         1.8876344836        1.8845612546        2.8168826297
O         0.0016832726        0.0014038448        7.6226244555
O         0.0014566171        3.7766850778        1.9919897100
O         1.8844465657       13.2368182822        6.8004643618
O        11.3510201298        1.8845633379        4.3943941123
O         5.6708757366        0.0014415814        9.2051278220
O         1.8845519800        3.7767311528        5.2186241131
O         0.0014015364       13.2368271471        0.4113537345
O         5.6709152256        1.8845336779        2.8130102885
O        11.3510804761        0.0014622062        7.6249008062
O         3.7766838147        0.0014592978        7.6230259963
O        13.2368186687        1.8844446367        2.8145580024
O        13.2368265042        0.0013994532        9.2036617531
O         3.7767370745        1.8845546974        4.3963900076
O         1.8845320506        5.6708941118        6.8020123526
O         0.0014638500       11.3510814118        1.9901153112