     192
 i =        1, E =     -5781.8148555911
Ti         0.0006651417        0.0006645132       -0.0000004312
Ti        -0.0007183266       -0.0007197731        0.0000009888
Ti         0.0006664271       -0.0007412057       -0.0005891536
Ti        -0.0007403428        0.0006676646        0.0005905586
Ti         0.0006697524       -0.0011987824        0.0002846520
Ti        -0.0007410374       -0.0007129898       -0.0005901480
Ti         0.0007030123       -0.0007224710        0.0000012413
Ti        -0.0002431479        0.0006729912        0.0004126217
Ti        -0.0006929811       -0.0011892159        0.0002996319
Ti         0.0006657453       -0.0007116002        0.0000020045
Ti        -0.0002456927       -0.0006758165        0.0001768278
Ti         0.0007250808        0.0006655799       -0.0005870447
Ti        -0.0011996955        0.0006714840       -0.0002832290
Ti        -0.0007114727       -0.0007395525        0.0005932715
Ti        -0.0007095747        0.0006662918       -0.0000024834
Ti        -0.0011874460       -0.0006981948       -0.0002986394
Ti        -0.0006779351       -0.0002423637       -0.0001749894
Ti         0.0006675101        0.0007243995        0.0005892428
Ti         0.0006733118       -0.0002417476       -0.0004109491
Ti        -0.0007233484        0.0007036528       -0.0000009120
Ti         0.0006731716        0.0002863428        0.0004126305
Ti        -0.0006968505        0.0012030951       -0.0003018089
Ti         0.0002915343       -0.0006796047       -0.0001752823
Ti         0.0012103890        0.0006689677        0.0002796807
Ti        -0.0006788037        0.0002911063        0.0001731651
Ti         0.0006706504        0.0012115042       -0.0002777227
Ti         0.0012017188       -0.0006938696        0.0003009065
Ti         0.0002875153        0.0006730339       -0.0004123553
Ti        -0.0011721174       -0.0011701151       -0.0000006838
Ti        -0.0007058139       -0.0007078479        0.0000018464
Ti         0.0006595938       -0.0002458322        0.0001737789
Ti        -0.0002460025        0.0006605571       -0.0001752206
Ti        -0.0007134259       -0.0012035436       -0.0002878214
Ti        -0.0012004005       -0.0007116610        0.0002875434
Ti        -0.0002459325       -0.0002490733       -0.0000016181
Ti         0.0007049239        0.0007048102       -0.0000001827
Ti         0.0007243996       -0.0007094898        0.0005902710
Ti        -0.0002472829       -0.0011602890        0.0001110145
Ti        -0.0011910010        0.0006758913        0.0002978832
Ti        -0.0007115117       -0.0002408745        0.0004121787
Ti        -0.0002429145       -0.0007128861       -0.0004131904
Ti         0.0006775178       -0.0011892799       -0.0002966259
Ti        -0.0007101084        0.0007260234       -0.0005932296
Ti        -0.0011583845       -0.0002468948       -0.0001153468
Ti        -0.0011602913        0.0002895553        0.0001150830
Ti        -0.0007089415        0.0012131434        0.0002817629
Ti         0.0002923215       -0.0002462413        0.0000025976
Ti         0.0012011244        0.0006785572       -0.0003033390
Ti        -0.0007125274        0.0002895933       -0.0004174324
Ti        -0.0011730914        0.0011832348        0.0000037415
Ti         0.0011702132       -0.0002468438        0.0001173074
Ti         0.0002895551        0.0006603292        0.0001723926
Ti         0.0006773302        0.0011991783        0.0003020845
Ti        -0.0002477816        0.0002921698        0.0000000768
Ti        -0.0002479431        0.0011723131       -0.0001154882
Ti         0.0006593076        0.0002901562       -0.0001705898
Ti         0.0011810955       -0.0011703112       -0.0000046573
Ti         0.0002895511       -0.0007117190        0.0004162364
Ti         0.0002914522       -0.0011603231       -0.0001148370
Ti         0.0012121719       -0.0007115230       -0.0002813352
Ti         0.0002909372        0.0002911050        0.0000012070
Ti         0.0011844590        0.0011833342       -0.0000007977
Ti         0.0002962740        0.0011671888        0.0001184504
Ti         0.0011693693        0.0002929443       -0.0001210801
O        -0.0001371773        0.0000391154       -0.0001734203
O         0.0004330585        0.0002849539        0.0000799765
O         0.0000610339        0.0004696186        0.0001796653
O         0.0003045691       -0.0001290869       -0.0002411097
O         0.0004702407        0.0000553789       -0.0001787121
O        -0.0001268949        0.0003060215        0.0002439661
O         0.0002873153        0.0004370957       -0.0000821377
O         0.0000353253       -0.0001373229        0.0001736748
O        -0.0001220066       -0.0006387458       -0.0002121225
O         0.0004695606       -0.0000696200        0.0001824659
O        -0.0003069783        0.0004433981        0.0000894987
O        -0.0001353956       -0.0001170317       -0.0003798031
O         0.0003835366       -0.0006371785       -0.0000983374
O        -0.0001401688       -0.0000468776        0.0001695883
O        -0.0001372790        0.0003730228        0.0000782571
O        -0.0003243030       -0.0001265457        0.0002376196
O        -0.0006383401       -0.0001217577        0.0002090147
O        -0.0000735389        0.0004684072       -0.0001847096
O        -0.0000444738       -0.0001411474       -0.0001733770
O        -0.0006372031        0.0003859236        0.0000955880
O         0.0003666846       -0.0001370744       -0.0000768840
O        -0.0001271146       -0.0003210577       -0.0002361777
O        -0.0001195862       -0.0001375491        0.0003794113
O         0.0004447251       -0.0003101752       -0.0000883837
O        -0.0001175353        0.0001552669       -0.0003783944
O         0.0003871069        0.0006299769        0.0001043702
O         0.0001526819        0.0003726645       -0.0000750726
O         0.0006340705       -0.0001224760       -0.0002056811
O         0.0003750136        0.0001526872        0.0000744228
O        -0.0001222801        0.0006323517        0.0002046636
O         0.0006307810        0.0003864516       -0.0001036868
O         0.0001529742       -0.0001171597        0.0003764084
O        -0.0006112513        0.0000958532        0.0002455201
O         0.0001453346        0.0003029275       -0.0002452226
O         0.0001166657       -0.0006172559        0.0002642575
O         0.0002891133       -0.0004531523        0.0000748053
O         0.0001650248        0.0000350315        0.0001784917
O        -0.0005985949        0.0002973329       -0.0001481100
O         0.0003191544       -0.0006080971       -0.0001804228
O         0.0000611896       -0.0004906532       -0.0001720692
O        -0.0004565052        0.0002877451       -0.0000763808
O        -0.0006164841        0.0001154570       -0.0002622483
O        -0.0006071881        0.0003194157        0.0001818924
O        -0.0004916099        0.0000621556        0.0001705252
O         0.0002970811       -0.0005976898        0.0001486865
O         0.0000349548        0.0001655100       -0.0001814721
O         0.0000977552       -0.0006082332       -0.0002472898
O         0.0003046903        0.0001420989        0.0002475404
O        -0.0005899653       -0.0006139424        0.0001823466
O         0.0001591515       -0.0000473037       -0.0001728869
O        -0.0003359675       -0.0006090994        0.0001869844
O        -0.0001366496       -0.0003852313       -0.0000795405
O         0.0001390233       -0.0006391487        0.0002147113
O        -0.0006099574       -0.0001080704       -0.0002487122
O        -0.0001239754       -0.0006043875       -0.0001237006
O        -0.0003082213       -0.0004615705       -0.0000839485
O        -0.0004915124       -0.0000692411       -0.0001775924
O        -0.0006092000       -0.0005927065       -0.0002673785
O        -0.0006373586       -0.0004007054       -0.0000928869
O        -0.0001280483       -0.0006140885       -0.0002662007
O        -0.0006136092       -0.0001276606        0.0002639085
O        -0.0003990517       -0.0006361694        0.0000926010
O        -0.0000707957       -0.0004914433        0.0001771399
O        -0.0005905709       -0.0006084940        0.0002630844
O        -0.0006041730       -0.0001232689        0.0001246697
O        -0.0004567233       -0.0003072801        0.0000852603
O        -0.0001063586       -0.0006117007        0.0002479086
O        -0.0006414813        0.0001437182       -0.0002156438
O        -0.0003877160       -0.0001363107        0.0000788197
O        -0.0006096015       -0.0003399254       -0.0001856242
O        -0.0006130643       -0.0005881325       -0.0001800976
O        -0.0000492624        0.0001577942        0.0001754789
O         0.0001493989       -0.0003273943        0.0002413338
O        -0.0005775753       -0.0001303259       -0.0000093565
O        -0.0001359989        0.0001273076        0.0003797529
O        -0.0003167071       -0.0005961885       -0.0001528640
O        -0.0005950992       -0.0003119485        0.0001543537
O         0.0001307491       -0.0001371842       -0.0003801389
O        -0.0003261441        0.0001504950       -0.0002423952
O        -0.0001292460       -0.0005775734        0.0000091118
O        -0.0005770542        0.0001487689        0.0000121416
O         0.0001335087        0.0006344235       -0.0002060588
O         0.0001370792       -0.0006068954        0.0001244749
O         0.0006302441       -0.0004010311        0.0001011140
O         0.0001330542        0.0001518404        0.0003788423
O        -0.0005881555        0.0006040627       -0.0001876499
O         0.0005801891       -0.0006065109       -0.0002703927
O         0.0001540650       -0.0003892264        0.0000784626
O        -0.0004023634        0.0006298781       -0.0001018158
O        -0.0006067982        0.0001387804       -0.0001241171
O        -0.0006058026        0.0005826873        0.0002700265
O        -0.0003849341        0.0001543425       -0.0000793205
O         0.0006081282       -0.0005893193        0.0001873119
O         0.0001515586        0.0001373045       -0.0003798634
O         0.0001469055       -0.0005769864       -0.0000089746
O         0.0006339898        0.0001332701        0.0002071118
O         0.0006663592        0.0001198436        0.0002653557
O         0.0005550248        0.0002958788        0.0001445709
O         0.0000885781        0.0005665030        0.0002435032
O         0.0003152423        0.0006590290        0.0001823987
O         0.0005674698        0.0000890612       -0.0002432092
O         0.0006588465        0.0003186878       -0.0001842574
O         0.0002972908        0.0005520432       -0.0001453819
O         0.0001183533        0.0006657979       -0.0002622589
O         0.0006569397       -0.0005895088        0.0002645410
O         0.0005666221       -0.0001008652        0.0002474509
O        -0.0003175168        0.0005554821        0.0001516677
O        -0.0001237231        0.0006555390        0.0001216268
O         0.0005477178       -0.0006196802       -0.0001764216
O         0.0006655502       -0.0001310710       -0.0002646900
O        -0.0001279020        0.0005372878       -0.0000044663
O        -0.0003317900        0.0006585428       -0.0001847159
O        -0.0005886359        0.0006575093       -0.0002649581
O        -0.0001073432        0.0005656370       -0.0002481456
O        -0.0001266465        0.0006660114        0.0002654809
O        -0.0006201978        0.0005467221        0.0001756172
O         0.0005372716       -0.0001275641        0.0000039969
O         0.0006587148       -0.0003333541        0.0001857160
O         0.0006547084       -0.0001237885       -0.0001216147
O         0.0005563989       -0.0003171538       -0.0001520863
O         0.0006536115        0.0001411924        0.0001192514
O         0.0005478819        0.0006106368        0.0001826107
O         0.0001427032        0.0005395110        0.0000048913
O         0.0005808414        0.0006577425        0.0002674126
O         0.0005405434        0.0001420446       -0.0000047526
O         0.0006571059        0.0005816026       -0.0002691352
O         0.0006090476        0.0005496125       -0.0001808432
O         0.0001405588        0.0006539777       -0.0001196204
     192
 i =        2, E =     -5781.8153997316
Ti         0.0000633591        0.0000654331       -0.0000015894
Ti        -0.0005351756       -0.0005376419        0.0000001339
Ti         0.0000629316       -0.0005330835        0.0004991839
Ti        -0.0005366681        0.0000631243       -0.0004994921
Ti         0.0000670816       -0.0010766637        0.0000283467
Ti        -0.0005375822       -0.0000766866        0.0004901570
Ti         0.0005035831       -0.0005374033       -0.0000167452
Ti        -0.0006933111        0.0000619994       -0.0000740736
Ti        -0.0005363336       -0.0010752001       -0.0005245730
Ti         0.0000640975       -0.0000776435        0.0000091082
Ti        -0.0006846861       -0.0005439612       -0.0004377362
Ti         0.0005056934        0.0000636369        0.0005203456
Ti        -0.0010803100        0.0000668737       -0.0000263786
Ti        -0.0000784748       -0.0005360034       -0.0004871229
Ti        -0.0000780440        0.0000657153       -0.0000090241
Ti        -0.0010740112       -0.0005386894        0.0005272005
Ti        -0.0005468761       -0.0006865835        0.0004396439
Ti         0.0000643364        0.0005035987       -0.0005165693
Ti         0.0000621301       -0.0006938991        0.0000772533
Ti        -0.0005368931        0.0005048564        0.0000201794
Ti         0.0000616609        0.0007527174       -0.0000766710
Ti        -0.0005367245        0.0010557538        0.0005161007
Ti         0.0007426024       -0.0005455786        0.0004384370
Ti         0.0010626821        0.0000652133        0.0000163913
Ti        -0.0005458094        0.0007426980       -0.0004413444
Ti         0.0000662896        0.0010619542       -0.0000172771
Ti         0.0010567132       -0.0005379534       -0.0005165245
Ti         0.0007554645        0.0000627773        0.0000732942
Ti        -0.0010628014       -0.0010640550       -0.0000011199
Ti        -0.0000777045       -0.0000808346       -0.0000017158
Ti         0.0005135265       -0.0006849855       -0.0004560367
Ti        -0.0006862723        0.0005156166        0.0004538518
Ti        -0.0000818092       -0.0010834067       -0.0000391718
Ti        -0.0010825979       -0.0000790141        0.0000376289
Ti        -0.0006805452       -0.0006837952       -0.0000024217
Ti         0.0005057747        0.0005042003       -0.0000016833
Ti         0.0005036362       -0.0000760946       -0.0005077778
Ti        -0.0006773235       -0.0010695036       -0.0000708520
Ti        -0.0010751531        0.0005057582       -0.0005452666
Ti        -0.0000781527       -0.0006945093       -0.0000708856
Ti        -0.0006969980       -0.0000788479        0.0000684865
Ti         0.0005062851       -0.0010728828        0.0005430882
Ti        -0.0000774663        0.0005048070        0.0005069356
Ti        -0.0010683632       -0.0006782871        0.0000672922
Ti        -0.0010680128        0.0007360109       -0.0000661047
Ti        -0.0000816958        0.0010617080        0.0000256263
Ti         0.0007381945       -0.0006772719        0.0000027276
Ti         0.0010576068        0.0005061371        0.0005349160
Ti        -0.0000794255        0.0007552589        0.0000667009
Ti        -0.0010666302        0.0010470070        0.0000119413
Ti         0.0010512424       -0.0006803137       -0.0000540847
Ti         0.0007423940        0.0005123595       -0.0004559402
Ti         0.0005061632        0.0010579180       -0.0005328950
Ti        -0.0006788414        0.0007400107        0.0000018830
Ti        -0.0006830762        0.0010511980        0.0000592046
Ti         0.0005147022        0.0007436386        0.0004575104
Ti         0.0010474919       -0.0010623460       -0.0000099628
Ti         0.0007547828       -0.0000792185       -0.0000663268
Ti         0.0007371680       -0.0010674772        0.0000663809
Ti         0.0010625029       -0.0000851333       -0.0000255209
Ti         0.0007383728        0.0007380870       -0.0000012819
Ti         0.0010436632        0.0010452853       -0.0000014052
Ti         0.0007370486        0.0010505553       -0.0000549302
Ti         0.0010519809        0.0007369493        0.0000537206
O         0.0000262317        0.0000224485       -0.0002331581
O         0.0003112356        0.0000072591        0.0004204802
O         0.0000030283        0.0003078606        0.0001230779
O         0.0000198566        0.0000246784        0.0000839582
O         0.0003076221        0.0000005122       -0.0001242115
O         0.0000253381        0.0000214079       -0.0000827238
O         0.0000117303        0.0003109166       -0.0004218337
O         0.0000239041        0.0000262484        0.0002339337
O         0.0000185946        0.0002343049       -0.0005922176
O         0.0003043847        0.0000238346        0.0001345264
O        -0.0000035554        0.0003127129        0.0004493227
O         0.0000941813        0.0000094601       -0.0005284883
O         0.0003167050        0.0002142008        0.0002534893
O         0.0000247698        0.0000024142        0.0002234082
O         0.0000876928        0.0003043697        0.0001975852
O        -0.0000105969        0.0000269011       -0.0001103586
O         0.0002379477        0.0000194036        0.0005906934
O         0.0000240477        0.0003043140       -0.0001370459
O         0.0000054984        0.0000250336       -0.0002235864
O         0.0002111370        0.0003149042       -0.0002538508
O         0.0003037504        0.0000934702       -0.0001992597
O         0.0000266225       -0.0000117387        0.0001106600
O         0.0000091008        0.0000892624        0.0005275818
O         0.0003122627       -0.0000032215       -0.0004485918
O         0.0000108366       -0.0001013423       -0.0005329685
O         0.0003141033       -0.0002322085       -0.0002396586
O        -0.0000998936        0.0003055550       -0.0002021902
O        -0.0002574569        0.0000184107       -0.0005792921
O         0.0003067364       -0.0000996464        0.0002024356
O         0.0000190563       -0.0002492050        0.0005786551
O        -0.0002270345        0.0003150492        0.0002401930
O        -0.0001054770        0.0000106501        0.0005316010
O         0.0005514606       -0.0000313368        0.0001819884
O        -0.0000122100        0.0000238862        0.0000826665
O        -0.0000318048       -0.0005568758        0.0003195666
O         0.0000132085       -0.0002890380        0.0004128478
O        -0.0000097330        0.0000254094        0.0002370866
O         0.0005336399       -0.0000166176       -0.0004517697
O         0.0000213180       -0.0005413693       -0.0005971657
O         0.0000054995       -0.0002828957       -0.0001151052
O        -0.0002893119        0.0000095336       -0.0004127632
O        -0.0005571107       -0.0000287720       -0.0003180330
O        -0.0005409760        0.0000272997        0.0005972376
O        -0.0002822070        0.0000028643        0.0001121896
O        -0.0000131886        0.0005334348        0.0004515296
O         0.0000232301       -0.0000097322       -0.0002367944
O        -0.0000285138        0.0005538547       -0.0001816442
O         0.0000233758       -0.0000140851       -0.0000816420
O         0.0005020625        0.0001904615       -0.0002694303
O        -0.0000119283        0.0000000749       -0.0002233820
O        -0.0000149168       -0.0005406885        0.0006260091
O         0.0000893484       -0.0002850241       -0.0002052084
O        -0.0000021820        0.0002335562        0.0005950943
O         0.0005505031        0.0000566014       -0.0001930814
O         0.0001075520       -0.0005251893        0.0000482403
O        -0.0000078066       -0.0002886759       -0.0004401135
O        -0.0002808813        0.0000263578       -0.0001248914
O        -0.0005359661        0.0002339100        0.0000954031
O         0.0002136409       -0.0002951958        0.0002612793
O         0.0000574525       -0.0005569435       -0.0003290293
O        -0.0005561666        0.0000510452        0.0003289123
O        -0.0002936403        0.0002172250       -0.0002624579
O         0.0000203819       -0.0002806146        0.0001257647
O         0.0002392840       -0.0005361172       -0.0000961317
O        -0.0005255387        0.0001031332       -0.0000484900
O        -0.0002875294       -0.0000055984        0.0004398438
O         0.0000536160        0.0005467436        0.0001927372
O         0.0002380716       -0.0000004852       -0.0005957780
O        -0.0002868752        0.0000917056        0.0002048821
O        -0.0005409845       -0.0000187582       -0.0006260082
O         0.0001844185        0.0005042644        0.0002683448
O         0.0000014610       -0.0000119475        0.0002240265
O        -0.0000089207       -0.0000114916       -0.0001073976
O         0.0004820885        0.0000907585        0.0002435722
O         0.0000922409        0.0000024159        0.0005284391
O         0.0000170858        0.0005382821       -0.0004800008
O         0.0005385855        0.0000169551        0.0004803409
O         0.0000034810        0.0000916212       -0.0005287124
O        -0.0000126450       -0.0000080383        0.0001081208
O         0.0000867703        0.0004820348       -0.0002414143
O         0.0004858416       -0.0000970129       -0.0002462213
O        -0.0000050242       -0.0002539564       -0.0005797095
O        -0.0001222554       -0.0005257931       -0.0000535561
O        -0.0002304797       -0.0002938926       -0.0002461969
O         0.0000057709       -0.0001031333        0.0005334976
O         0.0005037704       -0.0002049192        0.0002514865
O        -0.0002541275       -0.0005361931        0.0000801487
O        -0.0000971623       -0.0002869476        0.0002105692
O        -0.0002965201       -0.0002347182        0.0002466588
O        -0.0005252935       -0.0001149259        0.0000534207
O        -0.0005354591       -0.0002508585       -0.0000812443
O        -0.0002858666       -0.0001003624       -0.0002113596
O        -0.0002019923        0.0005027996       -0.0002508466
O        -0.0001040887        0.0000074410       -0.0005347164
O        -0.0000945113        0.0004860412        0.0002475561
O        -0.0002537334       -0.0000064647        0.0005790185
O         0.0005482714       -0.0000289919        0.0003228306
O        -0.0005559234       -0.0000173156        0.0004412854
O        -0.0000317230       -0.0005712190        0.0001711309
O         0.0000185575        0.0005318798        0.0005994976
O        -0.0005707336       -0.0000292630       -0.0001711175
O         0.0005312931        0.0000232294       -0.0005984997
O        -0.0000149071       -0.0005569334       -0.0004423666
O        -0.0000323513        0.0005487491       -0.0003200538
O         0.0005262313        0.0002317066       -0.0000985937
O        -0.0005731887        0.0000556369        0.0001830674
O         0.0000195815       -0.0005538164        0.0004716801
O         0.0001071611        0.0005133725       -0.0000550051
O        -0.0005203810        0.0001910667        0.0002753478
O         0.0005494175        0.0000561336       -0.0003297708
O         0.0000918527       -0.0004998132        0.0002487482
O        -0.0000118800        0.0005318006       -0.0006251465
O         0.0002355613        0.0005254041        0.0000982439
O         0.0000514919       -0.0005747776       -0.0001829931
O         0.0000605510        0.0005488673        0.0003325575
O         0.0001890154       -0.0005193698       -0.0002767772
O        -0.0005006516        0.0000916949       -0.0002493065
O         0.0005318013       -0.0000147892        0.0006252391
O         0.0005138659        0.0001035170        0.0000541085
O        -0.0005531052        0.0000260108       -0.0004715459
O         0.0005140081       -0.0001162347       -0.0000609709
O        -0.0005234114       -0.0002085113       -0.0002604425
O        -0.0000945866       -0.0004981051       -0.0002519227
O        -0.0002511917        0.0005260294       -0.0000833249
O        -0.0004959959       -0.0001019863        0.0002527732
O         0.0005260114       -0.0002467563        0.0000830121
O        -0.0002058692       -0.0005224038        0.0002598799
O        -0.0001197787        0.0005147060        0.0000604499
     192
 i =        3, E =     -5781.8157096319
Ti         0.0000293494        0.0000309578       -0.0000008398
Ti        -0.0000707045       -0.0000724134        0.0000002236
Ti         0.0000214801       -0.0000609062        0.0005690453
Ti        -0.0000637125        0.0000219451       -0.0005700133
Ti         0.0000205952       -0.0000927727        0.0002357376
Ti        -0.0000635319       -0.0000115719        0.0005599781
Ti         0.0000673772       -0.0000720405       -0.0000281981
Ti        -0.0003974223        0.0000088057        0.0003345857
Ti        -0.0000768845       -0.0001040414       -0.0007941732
Ti         0.0000299851       -0.0000205145        0.0000085938
Ti        -0.0003979567       -0.0000951667       -0.0009056469
Ti         0.0000603135        0.0000221461        0.0005996163
Ti        -0.0000950007        0.0000204635       -0.0002341069
Ti        -0.0000133154       -0.0000624497       -0.0005585011
Ti        -0.0000214479        0.0000307959       -0.0000083598
Ti        -0.0001039079       -0.0000780474        0.0007955094
Ti        -0.0000963446       -0.0003997825        0.0009075208
Ti         0.0000222589        0.0000583836       -0.0005968961
Ti         0.0000088794       -0.0003986577       -0.0003333085
Ti        -0.0000720590        0.0000674457        0.0000295180
Ti         0.0000083043        0.0004115786        0.0003292617
Ti        -0.0000765269        0.0000805022        0.0007710598
Ti         0.0004099836       -0.0000944434        0.0009011612
Ti         0.0000718496        0.0000200123        0.0002113588
Ti        -0.0000947111        0.0004100465       -0.0009031555
Ti         0.0000207937        0.0000711381       -0.0002126587
Ti         0.0000810735       -0.0000780754       -0.0007705722
Ti         0.0004138579        0.0000091838       -0.0003317289
Ti        -0.0001054802       -0.0001063347       -0.0000003606
Ti        -0.0000217651       -0.0000230648       -0.0000012530
Ti         0.0000896187       -0.0003983908       -0.0009329935
Ti        -0.0003986848        0.0000909204        0.0009322064
Ti        -0.0000114405       -0.0000958548       -0.0002466994
Ti        -0.0000954335       -0.0000098246        0.0002456705
Ti        -0.0004147848       -0.0004158214       -0.0000010332
Ti         0.0000672990        0.0000668927       -0.0000005757
Ti         0.0000591272       -0.0000121393       -0.0005885231
Ti        -0.0004001447       -0.0001245381        0.0001427209
Ti        -0.0001029095        0.0000720333       -0.0008230460
Ti        -0.0000014125       -0.0003978142        0.0003421045
Ti        -0.0003996775       -0.0000014898       -0.0003430730
Ti         0.0000721476       -0.0001029183        0.0008220942
Ti        -0.0000126375        0.0000596705        0.0005875302
Ti        -0.0001237547       -0.0004012759       -0.0001446583
Ti        -0.0001224434        0.0004125522        0.0001387018
Ti        -0.0000127485        0.0000705996        0.0002210957
Ti         0.0004257463       -0.0004126731       -0.0000069222
Ti         0.0000815587        0.0000733620        0.0008005118
Ti        -0.0000022100        0.0004116971       -0.0003396085
Ti        -0.0001066520        0.0000859095        0.0000245803
Ti         0.0001048932       -0.0004008233        0.0001698298
Ti         0.0004102735        0.0000877876       -0.0009271895
Ti         0.0000730875        0.0000823067       -0.0007994844
Ti        -0.0004131655        0.0004266590        0.0000085552
Ti        -0.0004026400        0.0001037578       -0.0001670957
Ti         0.0000889180        0.0004111498        0.0009287692
Ti         0.0000858068       -0.0001053166       -0.0000227772
Ti         0.0004114150       -0.0000028282        0.0003390007
Ti         0.0004131530       -0.0001223063       -0.0001381336
Ti         0.0000720006       -0.0000144581       -0.0002202421
Ti         0.0004263402        0.0004259200       -0.0000010965
Ti         0.0000836394        0.0000846338       -0.0000003128
Ti         0.0004104912        0.0001039165        0.0001611575
Ti         0.0001038679        0.0004119141       -0.0001621150
O        -0.0000916817       -0.0002093101       -0.0000281494
O         0.0000185557        0.0000328595        0.0004495803
O        -0.0002181126        0.0000185450       -0.0001080349
O         0.0000586714       -0.0000927712        0.0005130530
O         0.0000183002       -0.0002187194        0.0001069642
O        -0.0000928397        0.0000580432       -0.0005132040
O         0.0000342721        0.0000180927       -0.0004496410
O        -0.0002075665       -0.0000918513        0.0000285609
O        -0.0000850343        0.0003309565       -0.0003668016
O         0.0000189414        0.0002452745       -0.0001082876
O        -0.0000217179        0.0000164975        0.0004661258
O         0.0002654182       -0.0000816806       -0.0003133938
O         0.0000352171        0.0003134093        0.0004663537
O        -0.0000913221        0.0002344507        0.0000305034
O         0.0002535372        0.0000441358        0.0004302032
O        -0.0000460862       -0.0000935399       -0.0005295898
O         0.0003329571       -0.0000854495        0.0003672339
O         0.0002452192        0.0000192174        0.0001076630
O         0.0002367285       -0.0000908938       -0.0000299286
O         0.0003113176        0.0000344879       -0.0004660842
O         0.0000450484        0.0002578658       -0.0004315984
O        -0.0000938895       -0.0000473646        0.0005296742