#     Step Nr.          Time[fs]        Kin.[a.u.]          Temp[K]            Pot.[a.u.]        Cons Qty[a.u.]        UsedTime[s]
     27683        23396.000000         0.066978145       300.000000000     -1446.025734236     -1445.958756091        31.424081882
     27684        23397.000000         0.067934928       304.285502856     -1446.026699473     -1445.958764545         4.431702470
     27685        23398.000000         0.068536725       306.980994893     -1446.027304303     -1445.958767578         3.632113391
     27686        23399.000000         0.068733463       307.862200468     -1446.027497148     -1445.958763685         3.287374281
     27687        23400.000000         0.068537602       306.984921751     -1446.027295210     -1445.958757609         3.325524739
     27688        23401.000000         0.068017496       304.655333401     -1446.026769742     -1445.958752246         3.345785268
     27689        23402.000000         0.067255956       301.244336021     -1446.026003550     -1445.958747594         3.292908508
     27690        23403.000000         0.066322644       297.063964363     -1446.025065345     -1445.958742702         3.305700021
     27691        23404.000000         0.065285483       292.418446798     -1446.024023584     -1445.958738101         3.299232892
     27692        23405.000000         0.066978145       300.000000000     -1446.022948748     -1445.955970604         3.288686688
     27693        23406.000000         0.065878940       295.076583569     -1446.021849667     -1445.955970727         3.385728951
     27694        23407.000000         0.064789601       290.197354028     -1446.020759652     -1445.955970051         3.299776042
     27695        23408.000000         0.066978145       300.000000000     -1446.019714928     -1445.952736783         3.291186209
     27696        23409.000000         0.065987447       295.562593351     -1446.018720614     -1445.952733167         3.293626656
     27697        23410.000000         0.065111674       291.639941233     -1446.017842342     -1445.952730668         3.304333089
     27698        23411.000000         0.066978145       300.000000000     -1446.017134770     -1445.950156625         3.376141229
     27699        23412.000000         0.066446363       297.618112918     -1446.016602121     -1445.950155758         3.294897933
     27700        23413.000000         0.066105959       296.093415903     -1446.016262197     -1445.950156238         8.329056716
     27701        23414.000000         0.065969818       295.483630101     -1446.016127036     -1445.950157219         3.283310628
     27702        23415.000000         0.066015386       295.687733739     -1446.016176513     -1445.950161127         3.324040219
     27703        23416.000000         0.066185902       296.451486029     -1446.016353239     -1445.950167337         3.280233700
     27704        23417.000000         0.066407694       297.444912412     -1446.016580069     -1445.950172375         3.261439916
     27705        23418.000000         0.066616151       298.378602968     -1446.016790317     -1445.950174166         3.287371206
     27706        23419.000000         0.066774579       299.088216231     -1446.016948341     -1445.950173762         3.259021261
     27707        23420.000000         0.066864343       299.490276668     -1446.017039479     -1445.950175136         3.285007387
     27708        23421.000000         0.066859423       299.468239679     -1446.017037205     -1445.950177781         3.258281561
     27709        23422.000000         0.066721579       298.850822356     -1446.016902690     -1445.950181112         3.252556356
     27710        23423.000000         0.066405495       297.435060715     -1446.016590505     -1445.950185010         3.257128813
     27711        23424.000000         0.065872810       295.049125855     -1446.016057722     -1445.950184912         3.257118834
     27712        23425.000000         0.065129904       291.721594978     -1446.015310106     -1445.950180202         3.255477371
     27713        23426.000000         0.066978145       300.000000000     -1446.014410728     -1445.947432584         3.337803030
     27714        23427.000000         0.065968011       295.475536540     -1446.013397020     -1445.947429009         3.271883351
     27715        23428.000000         0.064926143       290.808935660     -1446.012349416     -1445.947423273         3.246819227
     27716        23429.000000         0.066978145       300.000000000     -1446.011368452     -1445.944390308         3.253875285
     27717        23430.000000         0.066134657       296.221955968     -1446.010519309     -1445.944384653         3.245397940
     27718        23431.000000         0.065516421       293.452833275     -1446.009899727     -1445.944383306         3.327873949
     27719        23432.000000         0.065178224       291.938022544     -1446.009562258     -1445.944384034         3.239171105
     27720        23433.000000         0.065104423       291.607463499     -1446.009493265     -1445.944388842         3.237851243
     27721        23434.000000         0.065230367       292.171574675     -1446.009625331     -1445.944394965         3.374292466
     27722        23435.000000         0.065490227       293.335510770     -1446.009886056     -1445.944395829         3.280705542
     27723        23436.000000         0.065851921       294.955564451     -1446.010246486     -1445.944394565         3.279893563
     27724        23437.000000         0.066299180       296.958868838     -1446.010694276     -1445.944395096         3.237127144
     27725        23438.000000         0.066790677       299.160319276     -1446.011190919     -1445.944400242         3.240691293
     27726        23439.000000         0.067238815       301.167561783     -1446.011646057     -1445.944407242         3.237198452
     27727        23440.000000         0.067542850       302.529358776     -1446.011951233     -1445.944408382         3.240655083
     27728        23441.000000         0.067657338       303.042158789     -1446.012060581     -1445.944403243         3.240525162
     27729        23442.000000         0.067600771       302.788790207     -1446.012000435     -1445.944399664         3.289438571
     27730        23443.000000         0.067389645       301.843141038     -1446.011791673     -1445.944402028         3.241581884
     27731        23444.000000         0.066997834       300.088191925     -1446.011403326     -1445.944405491         3.240225152
     27732        23445.000000         0.066395915       297.392151615     -1446.010798855     -1445.944402940         3.239230289
     27733        23446.000000         0.065620656       293.919711182     -1446.010012512     -1445.944391856         3.240205614
     27734        23447.000000         0.064791494       290.205831961     -1446.009172167     -1445.944380673         3.305133767
     27735        23448.000000         0.066978145       300.000000000     -1446.008411997     -1445.941433852         3.234862316
     27736        23449.000000         0.066312272       297.017506266     -1446.007748580     -1445.941436309         3.236450667
     27737        23450.000000         0.065762070       294.553115623     -1446.007193030     -1445.941430959         3.240580428
     27738        23451.000000         0.065393914       292.904114130     -1446.006818689     -1445.941424776         3.240182179
     27739        23452.000000         0.065256418       292.288259849     -1446.006683471     -1445.941427053         3.299678042
     27740        23453.000000         0.065328109       292.609369267     -1446.006760612     -1445.941432503         3.258324454
     27741        23454.000000         0.065564158       293.666649319     -1446.006996609     -1445.941432451         3.242823454
     27742        23455.000000         0.065960154       295.440344009     -1446.007389386     -1445.941429232         3.276704259
     27743        23456.000000         0.066526059       297.975074922     -1446.007957612     -1445.941431553         3.240300798
     27744        23457.000000         0.067216240       301.066449302     -1446.008656260     -1445.941440020         3.241504054
     27745        23458.000000         0.067921425       304.225023846     -1446.009372400     -1445.941450974         3.321818044
     27746        23459.000000         0.068509934       306.860996124     -1446.009967080     -1445.941457146         3.243377014
     27747        23460.000000         0.068888563       308.556906143     -1446.010347902     -1445.941459338         3.251794273
     27748        23461.000000         0.069020845       309.149403153     -1446.010478974     -1445.941458130         3.243627518
     27749        23462.000000         0.068914253       308.671973193     -1446.010368658     -1445.941454404         3.237528019
     27750        23463.000000         0.068609758       307.308117967     -1446.010059831     -1445.941450072         3.265874757
     27751        23464.000000         0.068157416       305.282041632     -1446.009605240     -1445.941447824         3.270855214
     27752        23465.000000         0.067593426       302.755890753     -1446.009040560     -1445.941447134         3.236801565
     27753        23466.000000         0.066941688       299.836707738     -1446.008387660     -1445.941445972         3.241914627
     27754        23467.000000         0.066233075       296.662781406     -1446.007676233     -1445.941443157         3.238547961
     27755        23468.000000         0.065517733       293.458711428     -1446.006956534     -1445.941438801         3.235758408
     27756        23469.000000         0.064863003       290.526125900     -1446.006297035     -1445.941434032         3.305880490
     27757        23470.000000         0.066978145       300.000000000     -1446.005769490     -1445.938791345         3.244400261
     27758        23471.000000         0.066603158       298.320406739     -1446.005395866     -1445.938792709         3.237950406
     27759        23472.000000         0.066379298       297.317722323     -1446.005176087     -1445.938796789         3.292854424
     27760        23473.000000         0.066280957       296.877247896     -1446.005080512     -1445.938799555         3.271517333
     27761        23474.000000         0.066262470       296.794442539     -1446.005065169     -1445.938802699         3.326678188
     27762        23475.000000         0.066289555       296.915755847     -1446.005092600     -1445.938803045         3.229710129
     27763        23476.000000         0.066362314       297.241650243     -1446.005163250     -1445.938800936         3.228927957
     27764        23477.000000         0.066502122       297.867859488     -1446.005301497     -1445.938799375         3.229145347
     27765        23478.000000         0.066716456       298.827876502     -1446.005517255     -1445.938800800         3.236175114
     27766        23479.000000         0.066982632       300.020099749     -1446.005786527     -1445.938803895         3.268942997
     27767        23480.000000         0.067264844       301.284148493     -1446.006069236     -1445.938804392         3.229643300
     27768        23481.000000         0.067549452       302.558928395     -1446.006351016     -1445.938801564         3.239878913
     27769        23482.000000         0.067855199       303.928389075     -1446.006653497     -1445.938798298         3.247225532
     27770        23483.000000         0.068206775       305.503124499     -1446.007004608     -1445.938797834         3.232769391
     27771        23484.000000         0.068604594       307.284986098     -1446.007404689     -1445.938800095         3.234376177
     27772        23485.000000         0.069022706       309.157740411     -1446.007825271     -1445.938802565         3.307938968
     27773        23486.000000         0.066978145       300.000000000     -1446.008234278     -1445.941256133         3.237223390
     27774        23487.000000         0.067364735       301.731566605     -1446.008621304     -1445.941256569         3.240720079
     27775        23488.000000         0.067728695       303.361769290     -1446.008987367     -1445.941258673         3.236561621
     27776        23489.000000         0.068029658       304.709804085     -1446.009292892     -1445.941263234         3.241637572
     27777        23490.000000         0.068225813       305.588396974     -1446.009492178     -1445.941266365         3.303145675
     27778        23491.000000         0.068285138       305.854121478     -1446.009551968     -1445.941266830         3.251327110
     27779        23492.000000         0.068194252       305.447036363     -1446.009460966     -1445.941266714         3.234434189
     27780        23493.000000         0.067951842       304.361263056     -1446.009219730     -1445.941267888         3.232558704
     27781        23494.000000         0.067560125       302.606731390     -1446.008828304     -1445.941268179         3.244400953
     27782        23495.000000         0.067023784       300.204424529     -1446.008292497     -1445.941268713         3.226630767
     27783        23496.000000         0.066354046       297.204616799     -1446.007620296     -1445.941266250         3.280655886
     27784        23497.000000         0.065592906       293.795413461     -1446.006853830     -1445.941260925         3.234453477
     27785        23498.000000         0.064812321       290.299116749     -1446.006068452     -1445.941256132         3.232773128
     27786        23499.000000         0.066978145       300.000000000     -1446.005335168     -1445.938357024         3.230962890
     27787        23500.000000         0.066313801       297.024356384     -1446.004669093     -1445.938355292         3.228157778
     27788        23501.000000         0.065762617       294.555564598     -1446.004114197     -1445.938351579         3.322719266
     27789        23502.000000         0.065386639       292.871530793     -1446.003732437     -1445.938345798         3.230745159
     27790        23503.000000         0.065234944       292.192077721     -1446.003578006     -1445.938343062         3.235727950
     27791        23504.000000         0.065328823       292.612568465     -1446.003673765     -1445.938344942         3.232464212
     27792        23505.000000         0.065651415       294.057481781     -1446.003999523     -1445.938348108         3.228474821
     27793        23506.000000         0.066160132       296.336060154     -1446.004509983     -1445.938349851         3.282780122
     27794        23507.000000         0.066813839       299.264064440     -1446.005163783     -1445.938349944         3.232165665
     27795        23508.000000         0.067582807       302.708325415     -1446.005933903     -1445.938351096         3.233648471
     27796        23509.000000         0.068423695       306.474724101     -1446.006780803     -1445.938357109         3.263789778
     27797        23510.000000         0.066978145       300.000000000     -1446.007610514     -1445.940632370         3.270022604
     27798        23511.000000         0.067649531       303.007188204     -1446.008289034     -1445.940639504         3.239486635
     27799        23512.000000         0.068090365       304.981714773     -1446.008730827     -1445.940640462         3.327356559
     27800        23513.000000         0.068269313       305.783236866     -1446.008904132     -1445.940634819         7.484349883
     27801        23514.000000         0.068242381       305.662608864     -1446.008870603     -1445.940628221         3.241173756
     27802        23515.000000         0.068084911       304.957289965     -1446.008708995     -1445.940624083         3.341265813
     27803        23516.000000         0.067842755       303.872652495     -1446.008466497     -1445.940623743         3.303531740
     27804        23517.000000         0.067528212       302.463794660     -1446.008153636     -1445.940625423         3.238882266
     27805        23518.000000         0.067140390       300.726707828     -1446.007765907     -1445.940625518         3.255862175
     27806        23519.000000         0.066697053       298.740971419     -1446.007319031     -1445.940621977         3.236237375
     27807        23520.000000         0.066252625       296.750347265     -1446.006869102     -1445.940616476         3.229682285
     27808        23521.000000         0.065883892       295.098763814     -1446.006495890     -1445.940611998         3.268509980
     27809        23522.000000         0.065662957       294.109178114     -1446.006271243     -1445.940608286         3.231229606
     27810        23523.000000         0.065650913       294.055231651     -1446.006255198     -1445.940604285         3.236849367
     27811        23524.000000         0.065899288       295.167722299     -1446.006501216     -1445.940601928         3.231338576
     27812        23525.000000         0.066428232       297.536901750     -1446.007033208     -1445.940604976         3.323560081
     27813        23526.000000         0.067195990       300.975744890     -1446.007809104     -1445.940613115         3.295201370
     27814        23527.000000         0.068102983       305.038233837     -1446.008725207     -1445.940622224         3.317210228
     27815        23528.000000         0.069044352       309.254693338     -1446.009669036     -1445.940624685         3.234037412
     27816        23529.000000         0.066978145       300.000000000     -1446.010586631     -1445.943608487         3.235636713
     27817        23530.000000         0.067845590       303.885349712     -1446.011455103     -1445.943609513         3.230267025
     27818        23531.000000         0.068665556       307.558040547     -1446.012278792     -1445.943613235         3.233207999
     27819        23532.000000         0.066978145       300.000000000     -1446.012995511     -1445.946017366         3.336402513
     27820        23533.000000         0.067518077       302.418395375     -1446.013539497     -1445.946021420         3.230675775
     27821        23534.000000         0.067870168       303.995436206     -1446.013891023     -1445.946020856         3.232146156
     27822        23535.000000         0.068026715       304.696623050     -1446.014046734     -1445.946020019         3.233583846
     27823        23536.000000         0.068015578       304.646738524     -1446.014034395     -1445.946018818         3.244969141
     27824        23537.000000         0.067875822       304.020763785     -1446.013892006     -1445.946016184         3.238079184
     27825        23538.000000         0.067652529       303.020619559     -1446.013665370     -1445.946012840         3.233280109
     27826        23539.000000         0.067398563       301.883085143     -1446.013408268     -1445.946009705         3.240575439
     27827        23540.000000         0.067171806       300.867423325     -1446.013178101     -1445.946006295         3.243063017
     27828        23541.000000         0.067031234       300.237790256     -1446.013034338     -1445.946003104         3.244896341
     27829        23542.000000         0.067027733       300.222112251     -1446.013028788     -1445.946001055         3.242762696
     27830        23543.000000         0.067193591       300.964998749     -1446.013194879     -1445.946001288         3.303536830
     27831        23544.000000         0.067532221       302.481750774     -1446.013536411     -1445.946004190         3.269443666
     27832        23545.000000         0.068016475       304.650759384     -1446.014024453     -1445.946007978         3.259039696
     27833        23546.000000         0.068599369       307.261583197     -1446.014611344     -1445.946011975         3.238670387
     27834        23547.000000         0.066978145       300.000000000     -1446.015242932     -1445.948264788         3.235094815
     27835        23548.000000         0.067607976       302.821060882     -1446.015874903     -1445.948266927         3.302101186
     27836        23549.000000         0.068205696       305.498294114     -1446.016475625     -1445.948269929         3.240802307
     27837        23550.000000         0.068705856       307.738545746     -1446.016980200     -1445.948274344         3.243478230
     27838        23551.000000         0.069054367       309.299552876     -1446.017330476     -1445.948276109         3.247912971
     27839        23552.000000         0.066978145       300.000000000     -1446.017491542     -1445.950513398         3.243341555
     27840        23553.000000         0.066956632       299.903643361     -1446.017468271     -1445.950511639         3.252410384
     27841        23554.000000         0.066756764       299.008422647     -1446.017269065     -1445.950512300         3.271136136
     27842        23555.000000         0.066358386       297.224054799     -1446.016873515     -1445.950515129         3.241614628
     27843        23556.000000         0.065743364       294.469329995     -1446.016259565     -1445.950516200         3.236180083
     27844        23557.000000         0.064908687       290.730750652     -1446.015422419     -1445.950513732         3.239909703
     27845        23558.000000         0.066978145       300.000000000     -1446.014394415     -1445.947416271         3.233422694
     27846        23559.000000         0.065789668       294.676725518     -1446.013199485     -1445.947409818         3.313417427
     27847        23560.000000         0.066978145       300.000000000     -1446.011946721     -1445.944968577         3.247982515
     27848        23561.000000         0.065756731       294.529197924     -1446.010716622     -1445.944959891         3.240032780
     27849        23562.000000         0.066978145       300.000000000     -1446.009633606     -1445.942655461         3.239885666
     27850        23563.000000         0.066114475       296.131559893     -1446.008766318     -1445.942651843         3.261573474
     27851        23564.000000         0.065533958       293.531382403     -1446.008185697     -1445.942651739         3.275868984
     27852        23565.000000         0.065262396       292.315038258     -1446.007915375     -1445.942652979         3.245001925
     27853        23566.000000         0.065288699       292.432849119     -1446.007943809     -1445.942655110         3.240939904
     27854        23567.000000         0.065593135       293.796443071     -1446.008249679     -1445.942656544         3.238439210
     27855        23568.000000         0.066164619       296.356159474     -1446.008821511     -1445.942656892         3.234857437
     27856        23569.000000         0.066993226       300.067550967     -1446.009651127     -1445.942657901         3.248330137
     27857        23570.000000         0.068053523       304.816700489     -1446.010714770     -1445.942661246         3.299196942
     27858        23571.000000         0.066978145       300.000000000     -1446.011958821     -1445.944980676         3.240468913
     27859        23572.000000         0.068302867       305.933530379     -1446.013290148     -1445.944987281         3.248795937
     27860        23573.000000         0.066978145       300.000000000     -1446.014636526     -1445.947658382         3.263405144
     27861        23574.000000         0.068212515       305.528833768     -1446.015877053     -1445.947664539         3.235432258
     27862        23575.000000         0.066978145       300.000000000     -1446.016957568     -1445.949979424         3.327065136
     27863        23576.000000         0.067837616       303.849635675     -1446.017815791     -1445.949978175         3.242385808
     27864        23577.000000         0.068496617       306.801348010     -1446.018470631     -1445.949974014         3.243277151
     27865        23578.000000         0.068968549       308.915165113     -1446.018940558     -1445.949972009         3.246617206
     27866        23579.000000         0.066978145       300.000000000     -1446.019241930     -1445.952263785         3.238625169
     27867        23580.000000         0.067098921       300.540964582     -1446.019366802     -1445.952267881         3.287028103
     27868        23581.000000         0.066993390       300.068286378     -1446.019266478     -1445.952273087         3.277762794
     27869        23582.000000         0.066595726       298.287117376     -1446.018869997     -1445.952274272         3.238216820
     27870        23583.000000         0.065906678       295.200822366     -1446.018174655     -1445.952267978         3.251166540
     27871        23584.000000         0.064995693       291.120453394     -1446.017255319     -1445.952259626         3.247976955
     27872        23585.000000         0.066978145       300.000000000     -1446.016199377     -1445.949221233         3.236283474
     27873        23586.000000         0.065784693       294.654442402     -1446.015006735     -1445.949222043         3.318934300
     27874        23587.000000         0.066978145       300.000000000     -1446.013693668     -1445.946715523         3.243979559
     27875        23588.000000         0.065531725       293.521380226     -1446.012239547     -1445.946707822         3.247704067
     27876        23589.000000         0.066978145       300.000000000     -1446.010735910     -1445.943757765         3.242827211
     27877        23590.000000         0.065456008       293.182240925     -1446.009211201     -1445.943755192         3.234330489
     27878        23591.000000         0.066978145       300.000000000     -1446.007723195     -1445.940745050         3.258796036
     27879        23592.000000         0.065478014       293.280805049     -1446.006222530     -1445.940744516         3.250601518
     27880        23593.000000         0.066978145       300.000000000     -1446.004733198     -1445.937755054         3.237406043
     27881        23594.000000         0.065475237       293.268366006     -1446.003228902     -1445.937753665         3.235703423
     27882        23595.000000         0.066978145       300.000000000     -1446.001734087     -1445.934755942         3.233926327
     27883        23596.000000         0.065420769       293.024400632     -1446.000177738     -1445.934756969         3.235483327
     27884        23597.000000         0.066978145       300.000000000     -1445.998558523     -1445.931580378         3.312323443
     27885        23598.000000         0.065250430       292.261441828     -1445.996826934     -1445.931576503         3.237466220
     27886        23599.000000         0.066978145       300.000000000     -1445.995044224     -1445.928066080         3.261408174
     27887        23600.000000         0.065124891       291.699143229     -1445.993188383     -1445.928063492         3.234732957
     27888        23601.000000         0.066978145       300.000000000     -1445.991322923     -1445.924344778         3.268457610
     27889        23602.000000         0.065045884       291.345265577     -1445.989390198     -1445.924344314         3.296481083
     27890        23603.000000         0.066978145       300.000000000     -1445.987443066     -1445.920464921         3.238860454
     27891        23604.000000         0.064990802       291.098545566     -1445.985449890     -1445.920459089         3.235141426
     27892        23605.000000         0.066978145       300.000000000     -1445.983535634     -1445.916557490         3.235851889
     27893        23606.000000         0.065192693       292.002831651     -1445.981741955     -1445.916549262         3.235852611
     27894        23607.000000         0.066978145       300.000000000     -1445.980219455     -1445.913241310         3.306244854
     27895        23608.000000         0.065766404       294.572524927     -1445.979004089     -1445.913237685         3.232116740
     27896        23609.000000         0.064943159       290.885152939     -1445.978176661     -1445.913233502         3.247401974
     27897        23610.000000         0.066978145       300.000000000     -1445.977805676     -1445.910827531         3.273193142
     27898        23611.000000         0.067080969       300.460557983     -1445.977911528     -1445.910830559         3.235450083
     27899        23612.000000         0.067624953       302.897102945     -1445.978464306     -1445.910839353         3.251321579
     27900        23613.000000         0.068548424       307.033394659     -1445.979393196     -1445.910844772         7.867599285
     27901        23614.000000         0.066978145       300.000000000     -1445.980625675     -1445.913647530         3.241994862
     27902        23615.000000         0.068478705       306.721121368     -1445.982127015     -1445.913648310         3.245654386
     27903        23616.000000         0.066978145       300.000000000     -1445.983893352     -1445.916915207         3.348616690
     27904        23617.000000         0.068840150       308.340059981     -1445.985767331     -1445.916927180         3.311540300
     27905        23618.000000         0.066978145       300.000000000     -1445.987655338     -1445.920677194         3.271879423
     27906        23619.000000         0.068774434       308.045711514     -1445.989452097     -1445.920677663         3.242254645
     27907        23620.000000         0.066978145       300.000000000     -1445.991185645     -1445.924207501         3.255079252
     27908        23621.000000         0.068518997       306.901588875     -1445.992736329     -1445.924217333         3.237727464
     27909        23622.000000         0.066978145       300.000000000     -1445.994044029     -1445.927065885         3.294802088
     27910        23623.000000         0.067975881       304.468933932     -1445.995039480     -1445.927063599         3.260417199