     192
 i =       15, E =     -5767.6753678348
Ti         0.0036002525        0.0031179096        0.0035623449
Ti         1.8855576727        1.8851042588        4.8088855119
Ti         0.0032980569        1.8863114763        2.3987157250
Ti         1.8855957799        0.0036281302        7.2207528743
Ti         0.0035803511        3.7770884780        0.0012221739
Ti         1.8863524241       13.2350669445        4.8026518675
Ti        11.3533154437        1.8854845123        2.4051788034
Ti         5.6683108507        0.0034854638        7.2210780368
Ti         1.8860961914        3.7769384556        7.2174757290
Ti         0.0031846467       13.2348248730        2.4075107392
Ti         5.6685447713        1.8853730600        4.8056402288
Ti        11.3520704738        0.0033326644       -0.0053563279
Ti         3.7773973257        0.0033737292        0.0013369354
Ti        13.2347947085        1.8856478570        4.8169679337
Ti        13.2352903739        0.0036275162        7.2146531901
Ti         3.7767595127        1.8863113039        2.3991434191
Ti         1.8855755503        5.6684968128        4.8107200819
Ti         0.0035899908       11.3527845289        0.0098686801
Ti         0.0033213670        5.6684398905        2.3959764292
Ti         1.8850695006       11.3528914168        7.2129381707
Ti         0.0034788917        7.5699854847        0.0103262237
Ti         1.8863270997        9.4615765498        4.8034255078
Ti         7.5698509327        1.8854978072        2.4067691356
Ti         9.4612748943        0.0035405678        7.2122256042
Ti         1.8853104466        7.5697392884        7.2097715657
Ti         0.0034029591        9.4609637808        2.4054612416
Ti         9.4613808880        1.8861660547        4.8136300358
Ti         7.5698282127        0.0033537303       -0.0082227066
Ti         3.7774166713        3.7773411828        0.0006137796
Ti        13.2347013561       13.2351954460        4.8110139710
Ti        11.3530914907        5.6685560022        2.4022144278
Ti         5.6684461869       11.3529040433        7.2143629192
Ti        13.2350157704        3.7773429874        7.2128102752
Ti         3.7770179992       13.2348765086        2.4049473441
Ti         5.6682887411        5.6682454874        4.8079306736
Ti        11.3528404011       11.3532731968        0.0013445497
Ti        11.3528156270       13.2348358205        2.4130488255
Ti         5.6683228475        3.7770692882        7.2192191010
Ti         3.7769892582       11.3522546180        0.0064569610
Ti        13.2349207566        5.6683401331        4.8176996237
Ti         5.6685102052       13.2350419340        4.7994531506
Ti        11.3520792469        3.7768025374       -0.0044172005
Ti        13.2351637690       11.3521175423        7.2063150368
Ti         3.7769944731        5.6683873735        2.3967777448
Ti         3.7771123292        7.5700300345        0.0082114334
Ti        13.2347939732        9.4612626906        4.8089445985
Ti         7.5700999868        5.6682814360        2.4041937578
Ti         9.4615850859       11.3521216920        7.2066405586
Ti        13.2351201210        7.5697962619        7.2035068798
Ti         3.7772789591        9.4609436235        2.4047027376
Ti         9.4612565990        5.6682945478        4.8155402586
Ti         7.5697897901       11.3530356099       -0.0017820910
Ti        11.3523214928        9.4614217455        2.4100308332
Ti         5.6682120101        7.5700214753        7.2117572907
Ti         5.6684475106        9.4613513110        4.8007155417
Ti        11.3528442142        7.5698467626        0.0031803188
Ti         9.4610618037        3.7773947837        7.2121219259
Ti         7.5699255848       13.2349651664        2.4135695354
Ti         7.5698683424        3.7770273680       -0.0070186377
Ti         9.4609646425       13.2349877916        4.8086313287
Ti         7.5700511812        7.5701061029        0.0004445866
Ti         9.4609376301        9.4610096588        4.8081834283
Ti         7.5699605143        9.4613064628        2.4117584249
Ti         9.4613800456        7.5698843692        7.2043233266
O        -0.0012334237        0.0049090429        1.9766708633
O         1.8857807693        1.8847247748        6.7942352548
O         0.0048899286        1.8860775100        4.3765910821
O         1.8850576745       -0.0009887934        9.2002236773
O         1.8862415881        0.0047414466        5.2442480840
O        -0.0009402145        1.8848550174        0.4188611713
O         1.8845348574        1.8859676863        2.8233989074
O         0.0047644288       -0.0011927136        7.6470744465
O        -0.0009262799        3.7746967805        1.9557665084
O         1.8860578866       13.2335846983        6.7806242495
O        11.3537334817        1.8858010748        4.3904911669
O         5.6792883191       -0.0007009109        9.1973404186
O         1.8861736200        3.7741494593        5.2587013869
O        -0.0011890325       13.2336959727        0.4362369988
O         5.6792638627        1.8859455650        2.8242880905
O        11.3535769599       -0.0009461410        7.6299042773
O         3.7744310162       -0.0008343469        7.6619653997
O        13.2336582747        1.8862262509        2.8405120285
O        13.2335677459       -0.0012331788        9.1875986120
O         3.7743149841        1.8860281234        4.3579242210
O         1.8858897416        5.6792813395        6.7920012013
O        -0.0009623901       11.3533703312        1.9892356126
O        -0.0006482166        5.6791902949        0.4195432066
O         1.8859663539       11.3539107363        5.2275679669
O        -0.0006989471        7.5590096082        1.9864605906
O         1.8859943365        9.4640723256        6.7621057303
O         7.5589949881        1.8859123595        4.3879782370
O         9.4636842081       -0.0009210065        9.1665851066
O         1.8859455650        7.5591004043        5.2285334164
O        -0.0008427948        9.4639667844        0.4512422719
O         9.4642735858        1.8861544281        2.8550150025
O         7.5591186836       -0.0006589254        7.6304616884
O         3.7706081412        0.0042978330        1.9782119988
O        13.2393863931        1.8850668324        6.7964678930
O         0.0045010916        5.6510601517        4.3780594126
O         1.8847154458       11.3526547855        9.1983894286
O        13.2395812467        0.0047624836        5.2431666942
O         3.7703687743        1.8851644532        0.4176512988
O         1.8846578327        5.6511316311        2.8228070902
O         0.0047757539       11.3522347358        7.6484712547
O        11.3524809729        1.8845578392        0.4196057493
O         5.6511015396        0.0044537603        5.2395701222
O         5.6510653651        1.8847391899        6.7935492761
O        11.3523899843        0.0048498552        1.9725336305
O         1.8852391625        3.7702260505        9.1988943428
O         0.0048800518       13.2396181181        4.3805854267
O         0.0042428587        3.7707563409        7.6398797675
O         1.8848795047       13.2393619975        2.8227672001
O         3.7704794243        3.7749900882        1.9593132527
O        13.2396480062       13.2335488519        6.7839867229
O        11.3536998055        5.6510504855        4.3900549993
O         5.6793755279       11.3525402318        9.1957406276
O        13.2392415321        3.7744423602        5.2584127030
O         3.7707835771       13.2341580819        0.4286269181
O         5.6788953865        5.6513577563        2.8233061855
O        11.3539535954       11.3524814479        7.6308821499
O        11.3522008691       13.2336792496        0.4362873742
O         5.6511790988        3.7745167844        5.2568402360
O         3.7741125116       11.3522857347        7.6626931100
O        13.2339958392        5.6510884797        2.8364357325
O         5.6510375707       13.2339948506        6.7813971787
O        11.3524400676        3.7742955026        1.9544408158
O        13.2335439800       11.3523754247        9.1843581785
O         3.7745970245        5.6511942017        4.3592161910
O         5.6513451104        5.6788688020        6.7925341129
O        11.3526622129       11.3537766855        1.9867038240
O        13.2341817585        3.7706244574        9.1897453680
O         3.7747120596       13.2393180782        4.3595368527
O        11.3525014530        5.6792812290        0.4208101286
O         5.6511651715       11.3537678974        5.2265477985
O         3.7749112673        3.7705436810        7.6570667251
O        13.2336832128       13.2396012069        2.8395720685
O        13.2393391529       11.3535482983        5.2264789623
O         3.7703393176        5.6785124477        0.4175798775
O         5.6791359427       13.2390734934        2.8230173431
O        11.3532721265        3.7703697565        7.6292094205
O         3.7701883545       11.3532361984        1.9878310264
O        13.2391112278        5.6792576983        6.7939519069
O        11.3533451796       13.2393847732        4.3925256814
O         5.6784393404        3.7703195241        9.1983479093
O         3.7703056519        7.5598251388        1.9872732310
O        13.2393522801        9.4637017679        6.7633516331
O         7.5594193149        5.6513475547        4.3886989976
O         9.4640834905       11.3524130914        9.1653214104
O        13.2390559023        7.5591137453        5.2271727891
O         3.7705645740        9.4635032590        0.4464476438
O         9.4639291656        5.6511618129        2.8533489095
O         7.5590477199       11.3525159717        7.6318788083
O        11.3522701428        9.4642415183        0.4513333901
O         5.6513706539        7.5594632107        5.2272700076
O         5.6511803913        9.4638369026        6.7630507775
O        11.3525582346        7.5590487744        1.9844937969
O         9.4633879249        3.7705004925        9.1708161019
O         7.5590427943       13.2391042013        4.3897478587
O         7.5599087046        3.7703221724        7.6289126194
O         9.4639615498       13.2392613540        2.8543485576
O         7.5873394948        0.0044716435        1.9737789211
O         9.4681562019        1.8852087365        6.7951468808
O         0.0042714190        9.4677471057        4.3825488453
O         1.8847406294        7.5873618077        9.1977208324
O         9.4675862456        0.0042857969        5.2357176183
O         7.5872501571        1.8846762636        0.4188317929
O         1.8851751501        9.4679774516        2.8218757069
O         0.0044570096        7.5872871938        7.6440221871
O         7.5872170512        3.7745641222        1.9554333255
O         9.4677417912       13.2341587239        6.7854818578
O        11.3531941007        9.4681428417        4.3914757562
O         5.6789306616        7.5870704073        9.1963782757
O         9.4678110561        3.7749176329        5.2535877643
O         7.5873078677       13.2339984068        0.4320729336
O         5.6784036162        9.4680438940        2.8214590366
O        11.3538107460        7.5872540820        7.6303430746
O         3.7744742516        7.5872300332        7.6609140993
O        13.2342004488        9.4675939140        2.8326251764
O        13.2339576898        7.5873467841        9.1856224139
O         3.7750201123        9.4678813316        4.3637035517
O         9.4680641852        5.6784760289        6.7947672511
O         7.5873229405       11.3537341678        1.9860813096
O         7.5870383083        5.6789088285        0.4195858579
O         9.4680009285       11.3532581111        5.2251390807
O         7.5870586385        7.5594712152        1.9849710535
O         9.4678903504        9.4634127846        6.7668067375
O         7.5598690684        9.4680497865        4.3908756519
O         9.4638307113        7.5872208278        9.1666403055
O         9.4680329649        7.5598050019        5.2251425079
O         7.5872390144        9.4639160540        0.4495193176
O         9.4634973393        9.4678299957        2.8497499252
O         7.5594463151        7.5870419519        7.6309296966
     192
 i =       16, E =     -5767.6755030316
Ti         0.0036485937        0.0027565962        0.0069158359
Ti         1.8856673904        1.8847798568        4.8101865801
Ti         0.0030799731        1.8864934974        2.4001477359
Ti         1.8850378511        0.0036344570        7.2234312511
Ti         0.0034780726        3.7766541425        0.0023812345
Ti         1.8865417673       13.2352403685        4.8041351003
Ti        11.3536214756        1.8855838463        2.4063784820
Ti         5.6682381015        0.0033843445        7.2223007154
Ti         1.8857690319        3.7768724095        7.2186741259
Ti         0.0028356715       13.2347424173        2.4109204429
Ti         5.6685761627        1.8851197833        4.8065371271
Ti        11.3518602182        0.0030993471       -0.0040489991
Ti         3.7773011413        0.0031430993        0.0021884826
Ti        13.2347355128        1.8851077753        4.8195902438
Ti        13.2356266774        0.0036822370        7.2179255849
Ti         3.7764977367        1.8861910195        2.3992634040
Ti         1.8854950342        5.6684928455        4.8108832409
Ti         0.0035932253       11.3533156406        0.0126029792
Ti         0.0031280739        5.6684520644        2.3963989511
Ti         1.8847356095       11.3527649444        7.2143565979
Ti         0.0034055947        7.5700563477        0.0117407860
Ti         1.8862115141        9.4618195723        4.8036382147
Ti         7.5698680530        1.8854132182        2.4067892898
Ti         9.4617123685        0.0034341911        7.2131917530
Ti         1.8850342365        7.5697170433        7.2108053901
Ti         0.0031817848        9.4610778372        2.4064341599
Ti         9.4614217318        1.8858550099        4.8147288956
Ti         7.5698327426        0.0031546905       -0.0080275002
Ti         3.7771882786        3.7770173385        0.0010455364
Ti        13.2345844665       13.2354875034        4.8143569588
Ti        11.3533462271        5.6685721673        2.4031851947
Ti         5.6684227044       11.3529695093        7.2144541436
Ti        13.2352023849        3.7772086315        7.2136610365
Ti         3.7765552727       13.2349391143        2.4060828791
Ti         5.6682606847        5.6681826368        4.8081755378
Ti        11.3526907588       11.3535625663        0.0026291030
Ti        11.3533592598       13.2348149332        2.4156164454
Ti         5.6682122807        3.7769230723        7.2201319607
Ti         3.7769510905       11.3525556115        0.0076268150
Ti        13.2349468487        5.6683058158        4.8190921490
Ti         5.6685435929       13.2351871651        4.7996979525
Ti        11.3521705652        3.7765611683       -0.0042825586
Ti        13.2353633085       11.3519245518        7.2078327489
Ti         3.7767820986        5.6683425729        2.3964984212
Ti         3.7769941530        7.5701453123        0.0091562984
Ti        13.2348323922        9.4616947891        4.8101561712
Ti         7.5701535764        5.6682442457        2.4044404774
Ti         9.4618313393       11.3522330623        7.2067415149
Ti        13.2352719113        7.5697854122        7.2039487188
Ti         3.7769245483        9.4611653917        2.4051513101
Ti         9.4613600304        5.6682197330        4.8164674772
Ti         7.5697716990       11.3532512379       -0.0009062899
Ti        11.3526451887        9.4614739221        2.4112306681
Ti         5.6681539445        7.5700525714        7.2119965646
Ti         5.6684046265        9.4615229669        4.8004005042
Ti        11.3528776704        7.5698699839        0.0033614559
Ti         9.4613828076        3.7771373248        7.2124369315
Ti         7.5699956055       13.2350271804        2.4147785593
Ti         7.5699441735        3.7768352223       -0.0073622760
Ti         9.4610691516       13.2351473224        4.8094217415
Ti         7.5700823751        7.5701734656        0.0006871881
Ti         9.4611604726        9.4613197242        4.8085983036
Ti         7.5700666293        9.4614209037        2.4127049379
Ti         9.4615671326        7.5699395288        7.2040059857
O        -0.0019448346        0.0046406398        1.9788082014
O         1.8859521008        1.8849397159        6.7941332431
O         0.0046198819        1.8862157251        4.3764674460
O         1.8851849160       -0.0017679732        9.2012379851
O         1.8865197658        0.0043506824        5.2495279362
O        -0.0016522631        1.8847889235        0.4217747328
O         1.8846252809        1.8862997590        2.8260201083
O         0.0043169692       -0.0018352449        7.6531783693
O        -0.0017643751        3.7746171973        1.9550930577
O         1.8861987395       13.2337951270        6.7806109097
O        11.3534500503        1.8859667990        4.3903312528
O         5.6793072712       -0.0015413733        9.1971340273
O         1.8864127176        3.7739627412        5.2613568633
O        -0.0018393996       13.2341046000        0.4424700459
O         5.6792427278        1.8861427588        2.8260928612
O        11.3535880296       -0.0016336877        7.6326400124
O         3.7740877634       -0.0015614049        7.6646543394
O        13.2339915187        1.8864930749        2.8456986256
O        13.2338027587       -0.0019352407        9.1896122379
O         3.7742777094        1.8861124756        4.3564759980
O         1.8860531340        5.6793409931        6.7911783104
O        -0.0017512216       11.3531840638        1.9903454032
O        -0.0014662195        5.6790492090        0.4212214417
O         1.8863068055       11.3537732663        5.2302955056
O        -0.0015518555        7.5589963721        1.9864566185
O         1.8860787825        9.4640816690        6.7608044352
O         7.5589348249        1.8860706021        4.3870667425
O         9.4637587330       -0.0017325937        9.1657850107
O         1.8861473495        7.5591187732        5.2304362617
O        -0.0015748257        9.4643047869        0.4539422482
O         9.4644356540        1.8863786041        2.8574927777
O         7.5592475886       -0.0014585028        7.6318794315
O         3.7701878208        0.0039585011        1.9776343221
O        13.2401393960        1.8851860299        6.7974123701
O         0.0042183770        5.6505741180        4.3769343902
O         1.8849545410       11.3524350131        9.1983392303
O        13.2401852836        0.0043101088        5.2492078752
O         3.7701440738        1.8850698494        0.4192575396
O         1.8846997423        5.6507392339        2.8240742693
O         0.0043770099       11.3519265317        7.6538817935
O        11.3520874140        1.8846460325        0.4221719737
O         5.6506374889        0.0041261502        5.2429263626
O         5.6505995841        1.8848388458        6.7933549179
O        11.3522079944        0.0045806680        1.9722255370
O         1.8851935927        3.7698912483        9.1985947433
O         0.0045959641       13.2402733911        4.3827380664
O         0.0038549864        3.7704410647        7.6429125210
O         1.8848148600       13.2400268744        2.8257707194
O         3.7700618103        3.7747100198        1.9575061392
O        13.2403185345       13.2337743163        6.7860705114
O        11.3535101248        5.6506008264        4.3899791209
O         5.6794334850       11.3523230439        9.1948197962
O        13.2399287576        3.7741013474        5.2611130432
O         3.7704700081       13.2344831437        0.4316264402
O         5.6789867097        5.6508016796        2.8245023191
O        11.3538175750       11.3521012191        7.6335005040
O        11.3518756615       13.2340087725        0.4414006166
O         5.6506124937        3.7742403174        5.2595231310
O         3.7739273902       11.3520046923        7.6653230539
O        13.2342791928        5.6506256659        2.8400618152
O         5.6505450221       13.2342189424        6.7800228831
O        11.3523075850        3.7742612288        1.9529651878
O        13.2337535220       11.3521878631        9.1843533128
O         3.7743929058        5.6506353697        4.3571518468
O         5.6507732762        5.6789727376        6.7918154029
O        11.3524489515       11.3535184394        1.9865706549
O        13.2344738438        3.7702187877        9.1891953463
O         3.7746258796       13.2400923617        4.3588108924
O        11.3522479811        5.6792662310        0.4227269497
O         5.6507769151       11.3536537496        5.2276930737
O         3.7745351040        3.7701846626        7.6598494417
O        13.2340834406       13.2401967674        2.8456990131
O        13.2399957942       11.3535480715        5.2294596929
O         3.7699344031        5.6784915126        0.4188731828
O         5.6789972010       13.2398276620        2.8245614529
O        11.3533156638        3.7701379783        7.6307925804
O         3.7698491201       11.3532385313        1.9875589264
O        13.2399188108        5.6792669429        6.7938633503
O        11.3531606110       13.2401089964        4.3934707586
O         5.6784486783        3.7699031399        9.1976404066
O         3.7698777300        7.5598073915        1.9866494402
O        13.2401465586        9.4637697013        6.7627998922
O         7.5592888891        5.6507756068        4.3880360598
O         9.4640815940       11.3522635257        9.1639011456
O        13.2398204927        7.5592649297        5.2288497208
O         3.7702061095        9.4638555083        0.4491598266
O         9.4641845838        5.6505854561        2.8559513928
O         7.5590654423       11.3522623760        7.6336422108
O        11.3519774710        9.4643984386        0.4539448337
O         5.6508255760        7.5593427063        5.2284042032
O         5.6506211040        9.4640113815        6.7609998777
O        11.3523535798        7.5589857643        1.9836979382
O         9.4636520275        3.7700975260        9.1689682036
O         7.5590413535       13.2398856268        4.3895456256
O         7.5599411036        3.7699179003        7.6301012754
O         9.4642918342       13.2399432879        2.8569266408
O         7.5877916422        0.0041895920        1.9723382379
O         9.4684849929        1.8851376747        6.7947170934
O         0.0039237098        9.4681619671        4.3821264031
O         1.8848817753        7.5877778814        9.1976693725
O         9.4678986244        0.0039084811        5.2385217591
O         7.5876075767        1.8847311519        0.4199276250
O         1.8850723795        9.4682034341        2.8236276064
O         0.0041126754        7.5877033628        7.6476981463
O         7.5877296259        3.7743654478        1.9533076528
O         9.4681536393       13.2344471432        6.7848021030
O        11.3531899994        9.4684778233        4.3911848602
O         5.6790487311        7.5875873319        9.1956801888
O         9.4681579784        3.7745526310        5.2562618433
O         7.5877283539       13.2342596984        0.4353805343
O         5.6783488064        9.4684456994        2.8227610990
O        11.3537042721        7.5875943090        7.6315620373
O         3.7741948422        7.5877538648        7.6635813673
O        13.2345430920        9.4679125911        2.8357532375
O        13.2341712147        7.5877909223        9.1845525269
O         3.7747295496        9.4682833263        4.3619189531
O         9.4684782992        5.6784786959        6.7940465941
O         7.5877368754       11.3535653561        1.9859450919
O         7.5875337656        5.6790134663        0.4207510237
O         9.4682184143       11.3532928684        5.2267133217
O         7.5875758764        7.5593485118        1.9843437443
O         9.4682982131        9.4636818687        6.7650390491
O         7.5598660555        9.4684664262        4.3902114443
O         9.4639904567        7.5877355679        9.1646213979
O         9.4684250026        7.5598354250        5.2263912430
O         7.5877600509        9.4641561699        0.4521322678
O         9.4638565228        9.4681880626        2.8524535499
O         7.5593429777        7.5875396700        7.6320320274
     192
 i =       17, E =     -5767.6756672746
Ti         0.0031158802        0.0009685862        0.0172985628
Ti         1.8867287026        1.8843950428        4.8142797256
Ti         0.0016647356        1.8878111960        2.4056013093
Ti         1.8840004642        0.0029214463        7.2306721018
Ti         0.0024094268        3.7753697583        0.0061238819
Ti         1.8878916562       13.2365434781        4.8097475863
Ti        11.3539302885        1.8865813726        2.4101653053
Ti         5.6680541778        0.0022679897        7.2255549952
Ti         1.8854604100        3.7767298355        7.2214242935
Ti         0.0010649544       13.2352035578        2.4214260941
Ti         5.6687272668        1.8850355953        4.8089165962
Ti        11.3504292307        0.0016581329        0.0010361968
Ti         3.7771279735        0.0016752814        0.0047487820
Ti        13.2353642232        1.8840964548        4.8266804502
Ti        13.2374173882        0.0031932274        7.2281036981
Ti         3.7756465126        1.8865812202        2.4005002936
Ti         1.8860352010        5.6685671081        4.8118132512
Ti         0.0028355358       11.3542603078        0.0199327394
Ti         0.0016798830        5.6685145273        2.3982819409
Ti         1.8843478709       11.3516557300        7.2187563115
Ti         0.0023283430        7.5702034845        0.0155297985
Ti         1.8866488067        9.4626405323        4.8051216124
Ti         7.5698321459        1.8858894088        2.4072632654
Ti         9.4630422890        0.0023924821        7.2163660962
Ti         1.8849021541        7.5695901547        7.2135947533
Ti         0.0017081098        9.4613355449        2.4093473062
Ti         9.4615259120        1.8855740893        4.8172186314
Ti         7.5697989276        0.0017271435       -0.0067990995
Ti         3.7765154802        3.7760224588        0.0022402836
Ti        13.2349606057       13.2371289626        4.8247242703
Ti        11.3534103107        5.6686600104        2.4057764342
Ti         5.6684323663       11.3524099487        7.2151364150
Ti        13.2366148239        3.7769403741        7.2162349881
Ti         3.7751679022       13.2359072249        2.4097659877
Ti         5.6682566243        5.6680879671        4.8089168124
Ti        11.3515121736       11.3538435937        0.0066829548
Ti        11.3543565129       13.2355402634        2.4226015206
Ti         5.6679449010        3.7764128325        7.2220401831
Ti         3.7768870238       11.3527998688        0.0102725215
Ti        13.2359268547        5.6682436549        4.8228428809
Ti         5.6686757567       13.2365087110        4.8010538718
Ti        11.3516702814        3.7757912090       -0.0030154027
Ti        13.2367539757       11.3505610949        7.2135234517
Ti         3.7760078100        5.6682371376        2.3964171881
Ti         3.7765543216        7.5703990415        0.0111218423
Ti        13.2357615649        9.4630085722        4.8140588789
Ti         7.5702207852        5.6682100865        2.4051411488
Ti         9.4626546641       11.3518052319        7.2079110805
Ti        13.2366424355        7.5697133528        7.2059148280
Ti         3.7758452994        9.4618527433        2.4063857338
Ti         9.4617917404        5.6680382537        4.8184326088
Ti         7.5696650673       11.3532192516        0.0014301827
Ti        11.3529421389        9.4616159719        2.4139890084
Ti         5.6680671165        7.5700579584        7.2127290498
Ti         5.6682882766        9.4622094038        4.8001947405
Ti        11.3522178611        7.5698421381        0.0043170774
Ti         9.4623990673        3.7764066368        7.2133402300
Ti         7.5701553862       13.2360769385        2.4179842710
Ti         7.5701245558        3.7761436037       -0.0076136843
Ti         9.4612790927       13.2364527402        4.8118160170
Ti         7.5700948869        7.5702714256        0.0014146323
Ti         9.4618302883        9.4623048727        4.8097497189
Ti         7.5703167383        9.4618937022        2.4146869321
Ti         9.4622973080        7.5700620220        7.2038364533
O        -0.0022459193        0.0051023673        1.9872094548
O         1.8854022677        1.8849616091        6.7959980981
O         0.0051100441        1.8855797863        4.3789470679
O         1.8850253808       -0.0019727457        9.2054480696
O         1.8863110768        0.0044098866        5.2630319065
O        -0.0017368021        1.8839515590        0.4299101652
O         1.8841823789        1.8863489635        2.8322949452
O         0.0042379449       -0.0019917968        7.6703662269
O        -0.0021552105        3.7747499688        1.9551564591
O         1.8855399287       13.2331882034        6.7834308870
O        11.3533220820        1.8854334272        4.3919987704
O         5.6796132824       -0.0019324417        9.1976050800
O         1.8862852377        3.7736292557        5.2664751116
O        -0.0019787010       13.2341114756        0.4599175430
O         5.6792914201        1.8859656605        2.8298684563
O        11.3543433826       -0.0017081831        7.6402519951
O         3.7733067377       -0.0016410539        7.6707145393
O        13.2337719739        1.8862720650        2.8589315863
O        13.2332484713       -0.0022463892        9.1977042491
O         3.7744761174        1.8855335075        4.3549314888
O         1.8856904795        5.6796978890        6.7905395908
O        -0.0019232257       11.3532262541        1.9947175020