     192
 i =       15, E =     -5767.6753678348
Ti        -0.0000474721       -0.0000366117        0.0000348012
Ti         0.0000324024        0.0000693424        0.0000908896
Ti        -0.0000212611        0.0000155250        0.0000882871
Ti         0.0000486325       -0.0000394692        0.0000719187
Ti        -0.0000343261       -0.0000629987        0.0000897048
Ti         0.0000191684        0.0000226121        0.0000803432
Ti        -0.0000651510        0.0000345169        0.0000750813
Ti         0.0000767779       -0.0000099282        0.0000067038
Ti         0.0000131292       -0.0000780471        0.0000723340
Ti        -0.0000380400        0.0000522591        0.0000343208
Ti         0.0000776114        0.0000288575        0.0000734907
Ti        -0.0000191763       -0.0000271101        0.0000924725
Ti        -0.0000866819       -0.0000395284       -0.0000218125
Ti         0.0000384156        0.0000531512        0.0000743056
Ti         0.0000413635       -0.0000481741        0.0000327043
Ti        -0.0000584386        0.0000110197        0.0000218146
Ti         0.0000100553        0.0000812708       -0.0000060483
Ti        -0.0000424991       -0.0000555267        0.0000628630
Ti         0.0000014264        0.0000695007        0.0000399941
Ti         0.0000721377       -0.0000259273        0.0001073402
Ti        -0.0000105792       -0.0000652890        0.0000041412
Ti         0.0000107226        0.0000577033        0.0000158554
Ti        -0.0000695025        0.0000175341       -0.0000162265
Ti         0.0000702843       -0.0000322408        0.0000739532
Ti         0.0000360972       -0.0000669069        0.0000853810
Ti        -0.0000379269        0.0000962193       -0.0000055859
Ti         0.0000791171        0.0000120145        0.0000778582
Ti        -0.0000606194       -0.0000054935        0.0000374488
Ti        -0.0000756436       -0.0000707629        0.0000098503
Ti         0.0000476218        0.0000391680        0.0000353737
Ti        -0.0000313105        0.0000768638        0.0000696790
Ti         0.0000786242       -0.0000114468       -0.0000008637
Ti         0.0000398234       -0.0000916634       -0.0000274308
Ti        -0.0000661386        0.0000334633        0.0000924552
Ti         0.0001211587        0.0001230323        0.0000141693
Ti        -0.0000275593       -0.0000619445        0.0000901661
Ti        -0.0000492653        0.0000413628        0.0000669953
Ti         0.0000921813       -0.0000855632        0.0000275427
Ti        -0.0000766010       -0.0000102614        0.0000640524
Ti         0.0000110580        0.0000780226        0.0000116413
Ti         0.0000712783        0.0000061268        0.0000312529
Ti        -0.0000085562       -0.0000581561        0.0000324306
Ti         0.0000241378       -0.0000170168        0.0000919775
Ti        -0.0000749819        0.0000958260        0.0000129825
Ti        -0.0000883553       -0.0000816000        0.0000304994
Ti         0.0000333080        0.0000670256        0.0000808087
Ti        -0.0001130145        0.0001202078        0.0000134043
Ti         0.0000577441       -0.0000095970        0.0000174754
Ti         0.0000001521       -0.0000584614        0.0000385043
Ti        -0.0000701161        0.0000778731        0.0000183806
Ti         0.0000891824        0.0000967269        0.0000419966
Ti        -0.0000644786       -0.0000260631        0.0000643638
Ti        -0.0000114284        0.0000761293        0.0000764444
Ti         0.0001233266       -0.0001089771        0.0000177454
Ti         0.0000933079        0.0000771576        0.0000008353
Ti        -0.0000083703       -0.0000679040        0.0000034314
Ti         0.0000718193       -0.0000765784       -0.0000086944
Ti        -0.0000652699        0.0000116716        0.0000080467
Ti        -0.0000792334       -0.0000775089        0.0000130562
Ti         0.0000923280        0.0000385158       -0.0000165977
Ti        -0.0001087135       -0.0001099126        0.0000142686
Ti         0.0000779814        0.0000717679        0.0000089707
Ti        -0.0000803176        0.0000847511        0.0000408797
Ti         0.0000750810       -0.0000829186        0.0000019789
O        -0.0000693650       -0.0000771143        0.0000806643
O         0.0000174492        0.0001417683       -0.0001233654
O        -0.0000931025        0.0000173163       -0.0001387534
O         0.0001409149       -0.0000750497       -0.0000538391
O         0.0000272573       -0.0001431405        0.0006418722
O        -0.0000706441        0.0000575103        0.0003253675
O         0.0000857881        0.0000283680        0.0002944003
O        -0.0001591560       -0.0000632702        0.0007257561
O        -0.0000793948       -0.0000319027       -0.0002050817
O         0.0000178683        0.0000862492       -0.0001228589
O        -0.0001527624        0.0000166193       -0.0001209883
O         0.0000463834       -0.0000783614       -0.0001226988
O         0.0000223010       -0.0000618941        0.0002935453
O        -0.0000646766        0.0001565589        0.0007434329
O         0.0000330166        0.0000202443        0.0002067830
O        -0.0000684570       -0.0000682024        0.0003050003
O        -0.0000782550       -0.0000707954        0.0003519234
O         0.0001372216        0.0000263444        0.0006301523
O         0.0000755698       -0.0000687292        0.0000676307
O        -0.0000314277        0.0000111617       -0.0002238693
O         0.0000185161        0.0000467264       -0.0001380265
O        -0.0000767154       -0.0001542911       -0.0000401040
O        -0.0000775374        0.0000170098        0.0002281102
O         0.0000291918       -0.0000919534        0.0002998181
O        -0.0000801014       -0.0000494395       -0.0001058988
O         0.0000121030        0.0000223744       -0.0002083169
O        -0.0000482062        0.0000178303       -0.0001398043
O         0.0000292289       -0.0000764788       -0.0002027972
O         0.0000207641       -0.0000365365        0.0002115616
O        -0.0000717061        0.0000767795        0.0003356025
O         0.0000549423        0.0000210343        0.0002695333
O        -0.0000243032       -0.0000754805        0.0002050228
O        -0.0000256758       -0.0001053006       -0.0001351433
O         0.0000733176        0.0001397799       -0.0000591394
O        -0.0000832295       -0.0000480765       -0.0002076355
O         0.0001485628       -0.0000224807       -0.0001262885
O         0.0000612493       -0.0001601397        0.0007229604
O        -0.0000134482        0.0000690352        0.0002272149
O         0.0000792261       -0.0000387536        0.0001807294
O        -0.0001466946       -0.0000314658        0.0006597408
O        -0.0000347106        0.0000878391        0.0002962710
O        -0.0000459970       -0.0001046342        0.0004367585
O        -0.0000439323        0.0001013840       -0.0001037345
O        -0.0000226629       -0.0000946543       -0.0001592195
O         0.0000823473       -0.0000204442       -0.0001326189
O        -0.0000818775        0.0000653359        0.0000782586
O        -0.0001251817       -0.0000186005        0.0003755114
O         0.0000589281        0.0000668408        0.0003365992
O        -0.0000321664       -0.0000641551       -0.0003344895
O         0.0000663972        0.0000760318        0.0000730742
O        -0.0001173292       -0.0000430525       -0.0000893074
O         0.0000453976       -0.0000240989       -0.0001474549
O         0.0000684671       -0.0000788080        0.0003534108
O        -0.0000186402        0.0001167604        0.0003710390
O         0.0000801411       -0.0000501558        0.0001638218
O        -0.0000910660       -0.0000335741        0.0002938873
O        -0.0000324952        0.0001342850        0.0006231416
O        -0.0000525836       -0.0000771528        0.0003322737
O        -0.0000632564       -0.0000273254        0.0002906541
O         0.0001022249       -0.0000456682        0.0004668758
O        -0.0000483317        0.0000804456       -0.0002326640
O        -0.0000172501       -0.0000315273       -0.0002327039
O         0.0000852275       -0.0000231000       -0.0001257681
O        -0.0000654852       -0.0000523064       -0.0002936535
O        -0.0000512742        0.0000823220       -0.0001292191
O        -0.0000221673       -0.0001468896       -0.0001250493
O         0.0001012675       -0.0000241469       -0.0001287332
O        -0.0000320525        0.0000744106       -0.0002121130
O        -0.0000262973        0.0000345541        0.0002196431
O        -0.0000384173       -0.0000926801        0.0001668895
O        -0.0000771461       -0.0000279890        0.0004196755
O         0.0001556320        0.0000599015        0.0007302294
O         0.0000664373       -0.0000698462        0.0003269917
O        -0.0000321715        0.0000432437        0.0002176743
O         0.0000172820        0.0000714596        0.0002215857
O        -0.0000753467       -0.0000136304        0.0002219725
O        -0.0000204597       -0.0000870283       -0.0001220602
O         0.0000761760        0.0000442649       -0.0001179121
O        -0.0001508658        0.0000711869       -0.0000534237
O         0.0000515654       -0.0000325709       -0.0001763350
O        -0.0000337576       -0.0000588103       -0.0001646002
O         0.0000761882        0.0000271239       -0.0001867473
O        -0.0000886070       -0.0000518341       -0.0001208555
O         0.0000210037       -0.0000181119       -0.0002144907
O         0.0000733405       -0.0000187824        0.0002267048
O        -0.0000277946        0.0000701239        0.0004015586
O         0.0000727621       -0.0000534164        0.0003129501
O        -0.0000357780       -0.0000265960        0.0002036258
O        -0.0000279989        0.0000525736        0.0002826924
O        -0.0000494548       -0.0000857253        0.0001560728
O        -0.0000527221        0.0000579326       -0.0002861754
O        -0.0000228525       -0.0000491782       -0.0001363999
O         0.0000557176       -0.0000307139       -0.0003274808
O        -0.0000461583        0.0000733312       -0.0001216686
O        -0.0000438616       -0.0000319051        0.0002079874
O         0.0000726979        0.0000674571        0.0003367575
O         0.0000428506       -0.0000878154       -0.0002413618
O         0.0000200066        0.0000760773       -0.0001444106
O        -0.0001059257        0.0000248606       -0.0001208425
O         0.0001117299        0.0000378017       -0.0000937276
O         0.0000183735       -0.0001203025        0.0003548054
O         0.0000337849        0.0000849899        0.0001677330
O         0.0000673121        0.0000135638        0.0002453992
O        -0.0001106114        0.0000399176        0.0004752503
O         0.0000461781       -0.0000656806       -0.0002980767
O         0.0000247776        0.0001009587       -0.0001479722
O        -0.0000887934        0.0000204363       -0.0001300260
O         0.0000845242        0.0000447872       -0.0001259418
O         0.0000267933       -0.0000771907        0.0004141326
O         0.0000404608        0.0000970992        0.0004297334
O         0.0000368161        0.0000320025        0.0002249954
O        -0.0000871935        0.0000324093        0.0001704534
O        -0.0000803548        0.0000466909        0.0003247686
O         0.0001202105        0.0000191109        0.0003884363
O         0.0000757190        0.0000422907       -0.0002004034
O        -0.0000647626        0.0000310304       -0.0003348209
O         0.0000324168        0.0000525687       -0.0001806298
O         0.0000375342       -0.0001111475       -0.0000916639
O         0.0000431404        0.0000811765        0.0001601877
O         0.0000122775       -0.0000762899        0.0002230740
O         0.0000445328       -0.0000864215       -0.0001162292
O         0.0000305548        0.0000585323       -0.0003253790
O        -0.0000541921        0.0000326892       -0.0001741331
O         0.0000550089        0.0000470095       -0.0002795961
O         0.0000313307       -0.0000458081        0.0002157135
O         0.0000475187        0.0000684975        0.0003135780
O         0.0000705157        0.0000281290        0.0004064752
O        -0.0000830590        0.0000430639        0.0001512037
     192
 i =       16, E =     -5767.6755030316
Ti        -0.0000941095       -0.0000624327        0.0000520276
Ti         0.0000736546        0.0001247368        0.0001375606
Ti        -0.0000527531        0.0000609209        0.0002732855
Ti         0.0001192008       -0.0000839939       -0.0000347403
Ti        -0.0000752596       -0.0000064571        0.0000360615
Ti         0.0000671440        0.0000518288        0.0002663596
Ti        -0.0001220344        0.0000734701        0.0001185791
Ti         0.0000703776       -0.0000456217       -0.0000689322
Ti         0.0000452781       -0.0000459114        0.0000788795
Ti        -0.0000663397        0.0001045379        0.0000528315
Ti         0.0000685875        0.0000844745        0.0000389138
Ti        -0.0000726498       -0.0000565023        0.0002786720
Ti        -0.0000510279       -0.0000739062        0.0001017802
Ti         0.0000838764        0.0001221357       -0.0000339194
Ti         0.0000748447       -0.0000932841        0.0000495161
Ti        -0.0000195213        0.0000466793        0.0000793291
Ti         0.0000563872        0.0000818019        0.0000631275
Ti        -0.0000929840       -0.0001343383       -0.0000437494
Ti        -0.0000280384        0.0000436044        0.0001285080
Ti         0.0001289580       -0.0000690485        0.0001436748
Ti        -0.0000556067       -0.0000680614       -0.0000752303
Ti         0.0000493681        0.0000177743        0.0000787293
Ti        -0.0000745285        0.0000620915        0.0000434809
Ti         0.0000188950       -0.0000699426        0.0000222877
Ti         0.0000973313       -0.0000613530        0.0000508050
Ti        -0.0000777106        0.0000642174        0.0001239012
Ti         0.0000454625        0.0000416772        0.0000773937
Ti        -0.0000438639       -0.0000314694        0.0001316070
Ti        -0.0000652221       -0.0000609072        0.0000245423
Ti         0.0000950762        0.0000684908        0.0000528996
Ti        -0.0000945426        0.0000653943        0.0000346379
Ti         0.0000764895       -0.0000619433        0.0000555449
Ti         0.0000812813       -0.0000584396        0.0001020922
Ti        -0.0000149395        0.0000756741        0.0000420270
Ti         0.0000996932        0.0001088323        0.0000211900
Ti        -0.0000711844       -0.0001207446        0.0001369692
Ti        -0.0001227501        0.0000883484       -0.0000371539
Ti         0.0000793086       -0.0000779483        0.0000246119
Ti        -0.0000411236       -0.0000466408        0.0000715810
Ti         0.0000541594        0.0000746771       -0.0000645857
Ti         0.0000498286        0.0000323520        0.0001226248
Ti        -0.0000505734       -0.0000165279        0.0000851276
Ti         0.0000577872       -0.0000690244        0.0002741915
Ti        -0.0000634428        0.0000744439        0.0000439544
Ti        -0.0000811915       -0.0000782203        0.0000231683
Ti         0.0000802548        0.0000144128        0.0000303847
Ti        -0.0001039293        0.0001030724        0.0000114227
Ti         0.0000164066       -0.0000525013        0.0000744144
Ti         0.0000300390       -0.0000400967        0.0001326149
Ti        -0.0000590531        0.0000716966        0.0000452044
Ti         0.0000841281        0.0000801337        0.0000376894
Ti        -0.0000569164       -0.0000860110        0.0000361553
Ti        -0.0000485765        0.0000445907        0.0000813078
Ti         0.0001075059       -0.0000991754        0.0000225397
Ti         0.0000675925        0.0000705765        0.0000285248
Ti        -0.0000548832       -0.0000731083        0.0000649905
Ti         0.0000635691       -0.0000649349        0.0000159247
Ti        -0.0000665524        0.0000482453       -0.0000686546
Ti        -0.0000653703       -0.0000659494        0.0000400174
Ti         0.0000576361        0.0000787116        0.0001031551
Ti        -0.0000940725       -0.0001040803        0.0000195365
Ti         0.0000685402        0.0000670021        0.0000249314
Ti        -0.0000729073        0.0000813440        0.0000330474
Ti         0.0000639544       -0.0000698605        0.0000380496
O         0.0000966087        0.0001988991        0.0006254448
O        -0.0000888827        0.0000231003        0.0003331157
O         0.0001817245       -0.0000895405        0.0003723615
O         0.0000501040        0.0001195019        0.0003225350
O        -0.0000723050        0.0000964493        0.0005655355
O         0.0001185229       -0.0001300971        0.0002330249
O        -0.0000984160       -0.0000578618        0.0000594756
O         0.0000620907        0.0000993511        0.0008753354
O         0.0001119402        0.0000044037        0.0002206227
O        -0.0000922470       -0.0001800672        0.0003970884
O        -0.0000147345       -0.0000863431        0.0003276190
O         0.0001437966        0.0001129850        0.0001602755
O        -0.0000574498       -0.0000994526       -0.0001801852
O         0.0001020834       -0.0000573119        0.0008818324
O         0.0001078134       -0.0000533461       -0.0000492878
O         0.0001291617        0.0001152282        0.0002019444
O        -0.0001158835        0.0001232740        0.0000118008
O        -0.0001027510       -0.0000713774        0.0005480628
O        -0.0002013479        0.0000935652        0.0006104643
O        -0.0000202704       -0.0000745926        0.0002832962
O        -0.0000657270        0.0001327053        0.0002055910
O         0.0001241709       -0.0000565994        0.0003232806
O         0.0001254496        0.0000860655        0.0000596412
O        -0.0000596278        0.0001044148        0.0000842929
O         0.0001167324       -0.0001413912        0.0001765561
O        -0.0000779946        0.0000065929        0.0002882715
O        -0.0001342583       -0.0000623953        0.0001880670
O        -0.0000100251        0.0001081135        0.0002072687
O        -0.0000550437       -0.0001085549       -0.0000223639
O         0.0001279641        0.0001121214       -0.0000003002
O         0.0000867461       -0.0000562380       -0.0001894849
O        -0.0000924414        0.0001201973        0.0000246109
O         0.0000378572        0.0001416392        0.0002024935
O        -0.0001178716        0.0000549062        0.0003229588
O         0.0002038769        0.0000399539        0.0001130653
O         0.0000246732        0.0000956395        0.0003340830
O        -0.0000980496        0.0000569795        0.0008727256
O         0.0000562402       -0.0000744765       -0.0000605512
O        -0.0000999508        0.0000425317       -0.0000794356
O         0.0000958230        0.0000787793        0.0005715062
O         0.0000654380       -0.0000904482        0.0000512790
O         0.0000450764        0.0001632951        0.0003322271
O         0.0000366604       -0.0000411457        0.0002357029
O         0.0000964907        0.0001743901        0.0003433560
O        -0.0000500482        0.0000371453        0.0002397644
O         0.0001957065       -0.0000931183        0.0006250144
O         0.0001221501        0.0000554912        0.0002887284
O        -0.0001283649       -0.0001143034        0.0002436814
O         0.0000448684       -0.0000234591        0.0000530482
O        -0.0000921767       -0.0001935458        0.0006223942
O         0.0000367031        0.0000368995        0.0002461900
O         0.0001333821        0.0000699459        0.0001935741
O        -0.0001234192       -0.0001173638        0.0000075372
O         0.0000567598       -0.0001219857        0.0002819208
O         0.0001722940        0.0000381562       -0.0000942087
O         0.0001059736        0.0000649949        0.0000622348
O         0.0000754828       -0.0001023295        0.0005500794
O         0.0000309975       -0.0000742806       -0.0001101991
O        -0.0000999357        0.0000636890       -0.0001874757
O        -0.0001610908        0.0000436012        0.0003800372
O         0.0000386578       -0.0001945635        0.0000700579
O         0.0000823875       -0.0000257430        0.0002771943
O        -0.0001851672        0.0000964559        0.0003937308
O        -0.0000379748        0.0000322092        0.0001422597
O         0.0000364201        0.0001773611        0.0001616483
O         0.0000942834       -0.0000114422        0.0003286117
O        -0.0001464895        0.0000373845        0.0002100115
O         0.0000065376       -0.0001064323        0.0002144729
O         0.0000592112        0.0001094291       -0.0000282445
O         0.0000423577        0.0000922653       -0.0000925080
O        -0.0000492294        0.0000527183        0.0000425288
O        -0.0000592853       -0.0000957128        0.0008764102
O        -0.0001146711        0.0001255839        0.0002422031
O         0.0000710713        0.0001351480       -0.0000816784
O         0.0000853629       -0.0001164332        0.0000352763
O         0.0000793002        0.0000542803       -0.0000607536
O         0.0000354644        0.0000479930        0.0002390104
O        -0.0001121991        0.0001392455        0.0001741913
O        -0.0000527381       -0.0001149895        0.0003244865
O         0.0001496420        0.0000648910        0.0001562593
O         0.0000647808       -0.0001487449        0.0001616275
O        -0.0001075921       -0.0000128014        0.0002336059
O        -0.0001792649        0.0000374069        0.0001576432
O         0.0000067821        0.0000814907        0.0002856640
O        -0.0001211274       -0.0000833414        0.0000636795
O         0.0000539940        0.0000410816        0.0000200644
O         0.0000670404        0.0000323956       -0.0001166967
O        -0.0001091925        0.0000605314       -0.0000457735
O         0.0000623473        0.0000836459       -0.0001854589
O         0.0000390441       -0.0001772672       -0.0000909026
O         0.0000316894        0.0000316352        0.0001403716
O         0.0000702239       -0.0001329720        0.0002045293
O         0.0000122061        0.0000455882        0.0000475019
O        -0.0001399450       -0.0001088260        0.0001586237
O        -0.0001344836        0.0000691935       -0.0000877982
O         0.0001087264       -0.0001186780        0.0000070234
O        -0.0000370156        0.0001918971        0.0000525888
O        -0.0000387991       -0.0000463651        0.0002269476
O         0.0001441298       -0.0000393711        0.0002251147
O        -0.0000321147       -0.0000335636        0.0002457425
O        -0.0000585923        0.0001194909        0.0002485126
O        -0.0000393301       -0.0000863417       -0.0000974607
O        -0.0000781475       -0.0000571673       -0.0000415649
O         0.0001580594       -0.0000414650        0.0003945868
O        -0.0000286633       -0.0000468219        0.0001369424
O        -0.0000388171       -0.0001383519        0.0001815270
O         0.0000457434       -0.0000387432        0.0002412802
O         0.0001804676       -0.0000323567        0.0001576830
O        -0.0000544030       -0.0000483345        0.0000328711
O        -0.0000408509       -0.0001662164        0.0003252064
O         0.0001279627       -0.0000721018       -0.0000784504
O         0.0001046198       -0.0000389133       -0.0000786289
O        -0.0000783283       -0.0000283593       -0.0001140956
O        -0.0001196159       -0.0000575595        0.0003108654
O        -0.0002053378       -0.0000363885        0.0001192643
O        -0.0000191705       -0.0000466981        0.0000426808
O        -0.0000652401        0.0001460945        0.0001538793
O        -0.0000342240        0.0000471668        0.0002323058
O        -0.0000345552        0.0001785855       -0.0000912219
O        -0.0000559224        0.0000717131       -0.0000646399
O        -0.0000342658       -0.0001790456        0.0001593496
O        -0.0000451586        0.0000143541        0.0000537909
O        -0.0001466798       -0.0000677732        0.0001531029
O         0.0000257727       -0.0000292794        0.0001454351
O        -0.0000707891       -0.0001327598       -0.0000817723
O        -0.0000290927        0.0000611548       -0.0001154807
O         0.0000411725       -0.0000546845        0.0000351081
O        -0.0001747220       -0.0000349219       -0.0000923249
     192
 i =       17, E =     -5767.6756672746
Ti         0.0001346318        0.0002233822        0.0001075578
Ti         0.0000266848        0.0001494291        0.0002891846
Ti         0.0002344287       -0.0000155720        0.0005212912
Ti         0.0001554657        0.0001502007        0.0000591747
Ti         0.0002070878        0.0000984044       -0.0001294775
Ti        -0.0000148957       -0.0002353911        0.0005261911
Ti        -0.0001312896        0.0000268090        0.0002778123
Ti         0.0002256532        0.0002318597       -0.0001379947
Ti         0.0000074447       -0.0000153098        0.0004374230
Ti         0.0002240131       -0.0001112768        0.0001048764
Ti         0.0001882836        0.0001111911        0.0000970056
Ti         0.0000055706        0.0002294553        0.0005234958
Ti        -0.0000399741        0.0002190448        0.0005070921
Ti        -0.0001621441        0.0001610669        0.0000448977
Ti        -0.0002083464        0.0001291476        0.0001145891
Ti         0.0000559237        0.0000083558       -0.0000351421
Ti         0.0000410543        0.0002353515        0.0001071625
Ti         0.0001443558       -0.0001729688        0.0000630329
Ti         0.0002798103        0.0001395233        0.0002555061
Ti         0.0001490661       -0.0000136395        0.0002675780
Ti         0.0002136312       -0.0002320275       -0.0001345704
Ti         0.0000077471       -0.0000735984       -0.0000091687
Ti        -0.0002402297        0.0000519692        0.0000827416
Ti        -0.0000878325        0.0002074673       -0.0001296148
Ti         0.0001310708       -0.0001784962        0.0001062075
Ti         0.0002169014        0.0000448452        0.0005243015
Ti         0.0000016632        0.0000058568        0.0003981769
Ti        -0.0001602697        0.0002709633        0.0002535609
Ti        -0.0000340287       -0.0000189986        0.0000851204
Ti        -0.0001262517       -0.0002155378        0.0001171580
Ti        -0.0001246608        0.0001780119        0.0001113035
Ti         0.0002309376       -0.0000469626        0.0000706647
Ti        -0.0002082541       -0.0000529811        0.0005240279
Ti         0.0000802687       -0.0001953490       -0.0001353631
Ti         0.0002268713        0.0002541970        0.0000284178
Ti        -0.0000194163       -0.0001327169        0.0002897725
Ti        -0.0001536591       -0.0001472976        0.0000486032
Ti         0.0002556865       -0.0000392844        0.0002223313
Ti        -0.0000041460       -0.0000094404        0.0004387236
Ti        -0.0002174136        0.0002301697       -0.0001416114
Ti         0.0001560261       -0.0002713831        0.0002640106
Ti        -0.0000083537        0.0000574662       -0.0000469693
Ti        -0.0002298373        0.0000143022        0.0005150143
Ti        -0.0000004377        0.0002220847       -0.0000732081
Ti        -0.0000436151       -0.0002635972        0.0002285578
Ti        -0.0001896717       -0.0000987024       -0.0001230790
Ti        -0.0002592108        0.0002368961        0.0000217059
Ti        -0.0000703334       -0.0000167919       -0.0000361285
Ti        -0.0002772194       -0.0001473131        0.0002633583
Ti        -0.0000154565        0.0000330280        0.0001104362
Ti         0.0000405767        0.0002445102        0.0002170108
Ti        -0.0001798574       -0.0001033424        0.0001044506
Ti        -0.0000152214        0.0000003822        0.0004357770
Ti         0.0002541220       -0.0002403215        0.0000207010
Ti         0.0002131704        0.0000047728       -0.0000822265
Ti        -0.0000321472       -0.0002338131        0.0000993861
Ti         0.0000158594       -0.0000300005        0.0001034778
Ti        -0.0002350024       -0.0002280179       -0.0001423657
Ti        -0.0002341344       -0.0000088676       -0.0000949642
Ti         0.0000365339       -0.0002032091        0.0004952227
Ti        -0.0002318696       -0.0002606369        0.0000287788
Ti         0.0000330540        0.0000199164        0.0000860262
Ti        -0.0002577669        0.0000322615        0.0002166716
Ti        -0.0000062302       -0.0002298596       -0.0000675122
O         0.0000113451        0.0002512743        0.0015835215
O        -0.0000739292        0.0001729252        0.0011004392
O         0.0002336852       -0.0000579050        0.0016810938
O         0.0002609661       -0.0000117977        0.0009279679
O        -0.0000606940        0.0000278060       -0.0006942723
O         0.0000036012       -0.0002006996        0.0007134076
O        -0.0001196393       -0.0000108035        0.0000912629
O        -0.0001092552        0.0000498487       -0.0006144511
O        -0.0000200488        0.0000289530        0.0012303679
O        -0.0000589371       -0.0002151135        0.0017132512
O        -0.0001403930       -0.0000740975        0.0010875412
O         0.0002503667       -0.0000225337        0.0006972918
O         0.0000001279       -0.0002586430       -0.0011858924
O         0.0000502893        0.0001398033       -0.0007879391
O         0.0001601738       -0.0000011489       -0.0002943094
O         0.0002054590        0.0000015343        0.0006120548
O        -0.0002716230        0.0000036746       -0.0009636523
O        -0.0000179600       -0.0000595129       -0.0006682002
O        -0.0002521032        0.0000078718        0.0016269286
O        -0.0000661682       -0.0000401586        0.0012858995
O        -0.0000271801        0.0002026052        0.0007685821
O        -0.0000137452       -0.0002521031        0.0008906903