 DBCSR| CPU Multiplication driver                                           XSMM (U)
 DBCSR| Multrec recursion limit                                              512 (U)
 DBCSR| Multiplication stack size                                           1000 (D)
 DBCSR| Maximum elements for images                                    UNLIMITED (U)
 DBCSR| Multiplicative factor virtual images                                   1 (U)
 DBCSR| Use multiplication densification                                       T (D)
 DBCSR| Multiplication size stacks                                             3 (U)
 DBCSR| Use memory pool for CPU allocation                                     F (U)
 DBCSR| Number of 3D layers                                               SINGLE (U)
 DBCSR| Use MPI memory allocation                                              F (U)
 DBCSR| Use RMA algorithm                                                      F (U)
 DBCSR| Use Communication thread                                               T (U)
 DBCSR| Communication thread load                                             87 (D)
 DBCSR| MPI: My process id                                                     0
 DBCSR| MPI: Number of processes                                             128
 DBCSR| OMP: Current number of threads                                         1
 DBCSR| OMP: Max number of threads                                             1
 DBCSR| Split modifier for TAS multiplication algorithm                  1.0E+00 (U)


  **** **** ******  **  PROGRAM STARTED AT               2025-06-16 15:38:20.001
 ***** ** ***  *** **   PROGRAM STARTED ON                             nid006739
 **    ****   ******    PROGRAM STARTED BY                                cahart
 ***** **    ** ** **   PROGRAM PROCESS ID                                108315
  **** **  *******  **  PROGRAM STARTED IN /mnt/lustre/a2fs-work2/work/e05/e05/c
                                           ahart/postdoc2/work/group/tio2/anatas
                                           e/cell-441/geo-opt/mp-390/hole/from-n
                                           eutral/pbe-u-o/u-5.5

 CP2K| version string:                                       CP2K version 2024.3
 CP2K| source code revision number:                                  git:6712648
 CP2K| cp2kflags: omp libint fftw3 libxc libgrpp elpa parallel scalapack cosma x
 CP2K|            smm plumed2 spglib mkl sirius libvori libbqb libvdwxc hdf5
 CP2K| is freely available from                            https://www.cp2k.org/
 CP2K| Program compiled at                       Thu 12 Sep 2024 10:20:47 AM BST
 CP2K| Program compiled on                                                  ln04
 CP2K| Program compiled for                                                local
 CP2K| Data directory path    /mnt/lustre/a2fs-work1/work/y07/shared/apps/core/c
 CP2K| Input file name                                                 input.inp

 GLOBAL| Force Environment number                                              1
 GLOBAL| Basis set file name                                        BASIS_MOLOPT
 GLOBAL| Potential file name                                      GTH_POTENTIALS
 GLOBAL| MM Potential file name                                     MM_POTENTIAL
 GLOBAL| Coordinate file name                                         system.xyz
 GLOBAL| Method name                                                        CP2K
 GLOBAL| Project name                                                       tio2
 GLOBAL| Run type                                                        GEO_OPT
 GLOBAL| FFT library                                                       FFTW3
 GLOBAL| Diagonalization library                                            ELPA
 GLOBAL| DGEMM library                                                      BLAS
 GLOBAL| Minimum number of eigenvectors for ELPA usage                        16
 GLOBAL| Orthonormality check for eigenvectors                          DISABLED
 GLOBAL| Matrix multiplication library                                     COSMA
 GLOBAL| All-to-all communication in single precision                          F
 GLOBAL| FFTs using library dependent lengths                                  F
 GLOBAL| Grid backend                                                       AUTO
 GLOBAL| Global print level                                               MEDIUM
 GLOBAL| MPI I/O enabled                                                       T
 GLOBAL| Total number of message passing processes                           128
 GLOBAL| Number of threads for this process                                    1
 GLOBAL| This output is from process                                           0
 GLOBAL| Stack size for threads created by OpenMP (OMP_STACKSIZE)        default
 GLOBAL| CPU model name                          AMD EPYC 7742 64-Core Processor
 GLOBAL| CPUID                                                              1002

 MEMORY| system memory details [Kb]
 MEMORY|                        rank 0           min           max       average
 MEMORY| MemTotal            263341712     263341712     263341712     263341712
 MEMORY| MemFree             234625052     234624548     234625304     234624780
 MEMORY| Buffers                     0             0             0             0
 MEMORY| Cached                1837424       1837424       1838052       1837787
 MEMORY| Slab                  6031196       6031184       6031252       6031227
 MEMORY| SReclaimable           904864        904864        904892        904880
 MEMORY| MemLikelyFree       237367340     237367340     237367996     237367447


 *** Fundamental physical constants (SI units) ***

 *** Literature: B. J. Mohr and B. N. Taylor,
 ***             CODATA recommended values of the fundamental physical
 ***             constants: 2006, Web Version 5.1
 ***             http://physics.nist.gov/constants

 Speed of light in vacuum [m/s]                             2.99792458000000E+08
 Magnetic constant or permeability of vacuum [N/A**2]       1.25663706143592E-06
 Electric constant or permittivity of vacuum [F/m]          8.85418781762039E-12
 Planck constant (h) [J*s]                                  6.62606896000000E-34
 Planck constant (h-bar) [J*s]                              1.05457162825177E-34
 Elementary charge [C]                                      1.60217648700000E-19
 Electron mass [kg]                                         9.10938215000000E-31
 Electron g factor [ ]                                     -2.00231930436220E+00
 Proton mass [kg]                                           1.67262163700000E-27
 Fine-structure constant                                    7.29735253760000E-03
 Rydberg constant [1/m]                                     1.09737315685270E+07
 Avogadro constant [1/mol]                                  6.02214179000000E+23
 Boltzmann constant [J/K]                                   1.38065040000000E-23
 Atomic mass unit [kg]                                      1.66053878200000E-27
 Bohr radius [m]                                            5.29177208590000E-11

 *** Conversion factors ***

 [u] -> [a.u.]                                              1.82288848426455E+03
 [Angstrom] -> [Bohr] = [a.u.]                              1.88972613288564E+00
 [a.u.] = [Bohr] -> [Angstrom]                              5.29177208590000E-01
 [a.u.] -> [s]                                              2.41888432650478E-17
 [a.u.] -> [fs]                                             2.41888432650478E-02
 [a.u.] -> [J]                                              4.35974393937059E-18
 [a.u.] -> [N]                                              8.23872205491840E-08
 [a.u.] -> [K]                                              3.15774647902944E+05
 [a.u.] -> [kJ/mol]                                         2.62549961709828E+03
 [a.u.] -> [kcal/mol]                                       6.27509468713739E+02
 [a.u.] -> [Pa]                                             2.94210107994716E+13
 [a.u.] -> [bar]                                            2.94210107994716E+08
 [a.u.] -> [atm]                                            2.90362800883016E+08
 [a.u.] -> [eV]                                             2.72113838565563E+01
 [a.u.] -> [Hz]                                             6.57968392072181E+15
 [a.u.] -> [1/cm] (wave numbers)                            2.19474631370540E+05
 [a.u./Bohr**2] -> [1/cm]                                   5.14048714338585E+03
 

 CELL_TOP| Volume [angstrom^3]:                                      2198.132028
 CELL_TOP| Vector a [angstrom    15.120     0.000     0.000   |a| =    15.120000
 CELL_TOP| Vector b [angstrom     0.000    15.120     0.000   |b| =    15.120000
 CELL_TOP| Vector c [angstrom     0.000     0.000     9.615   |c| =     9.615020
 CELL_TOP| Angle (b,c), alpha [degree]:                                90.000000
 CELL_TOP| Angle (a,c), beta  [degree]:                                90.000000
 CELL_TOP| Angle (a,b), gamma [degree]:                                90.000000
 CELL_TOP| Requested initial symmetry:                       MONOCLINIC_GAMMA_AB
 CELL_TOP| Numerically orthorhombic:                                         YES
 CELL_TOP| Periodicity                                                       XYZ

 *** WARNING in atoms_input.F:123 :: Overwriting coordinates. Active    ***
 *** coordinates read from &COORD section. Active coordinates READ from ***
 *** &COORD section                                                     ***


 GENERATE|  Preliminary Number of Bonds generated:                             0
 GENERATE|  Achieved consistency in connectivity generation.

 CELL| Volume [angstrom^3]:                                          2198.132028
 CELL| Vector a [angstrom]:      15.120     0.000     0.000   |a| =    15.120000
 CELL| Vector b [angstrom]:       0.000    15.120     0.000   |b| =    15.120000
 CELL| Vector c [angstrom]:       0.000     0.000     9.615   |c| =     9.615020
 CELL| Angle (b,c), alpha [degree]:                                    90.000000
 CELL| Angle (a,c), beta  [degree]:                                    90.000000
 CELL| Angle (a,b), gamma [degree]:                                    90.000000
 CELL| Requested initial symmetry:                           MONOCLINIC_GAMMA_AB
 CELL| Numerically orthorhombic:                                             YES
 CELL| Periodicity                                                           XYZ

 CELL_REF| Volume [angstrom^3]:                                      2198.132028
 CELL_REF| Vector a [angstrom    15.120     0.000     0.000   |a| =    15.120000
 CELL_REF| Vector b [angstrom     0.000    15.120     0.000   |b| =    15.120000
 CELL_REF| Vector c [angstrom     0.000     0.000     9.615   |c| =     9.615020
 CELL_REF| Angle (b,c), alpha [degree]:                                90.000000
 CELL_REF| Angle (a,c), beta  [degree]:                                90.000000
 CELL_REF| Angle (a,b), gamma [degree]:                                90.000000
 CELL_REF| Requested initial symmetry:                       MONOCLINIC_GAMMA_AB
 CELL_REF| Numerically orthorhombic:                                         YES
 CELL_REF| Periodicity                                                       XYZ

 *******************************************************************************
 *******************************************************************************
 **                                                                           **
 **     #####                         ##              ##                      **
 **    ##   ##            ##          ##              ##                      **
 **   ##     ##                       ##            ######                    **
 **   ##     ##  ##   ##  ##   #####  ##  ##   ####   ##    #####    #####    **
 **   ##     ##  ##   ##  ##  ##      ## ##   ##      ##   ##   ##  ##   ##   **
 **   ##  ## ##  ##   ##  ##  ##      ####     ###    ##   ######   ######    **
 **    ##  ###   ##   ##  ##  ##      ## ##      ##   ##   ##       ##        **
 **     #######   #####   ##   #####  ##  ##  ####    ##    #####   ##        **
 **           ##                                                    ##        **
 **                                                                           **
 **                                                ... make the atoms dance   **
 **                                                                           **
 **            Copyright (C) by CP2K developers group (2000-2024)             **
 **                      J. Chem. Phys. 152, 194103 (2020)                    **
 **                                                                           **
 *******************************************************************************

 DFT| Spin unrestricted (spin-polarized) Kohn-Sham calculation               UKS
 DFT| Multiplicity                                                             2
 DFT| Number of spin states                                                    2
 DFT| Charge                                                                   1
 DFT| Self-interaction correction (SIC)                                       NO
 DFT| Cutoffs: density                                              1.000000E-10
 DFT|          gradient                                             1.000000E-10
 DFT|          tau                                                  1.000000E-10
 DFT|          cutoff_smoothing_range                               0.000000E+00
 DFT| XC density smoothing                                                  NONE
 DFT| XC derivatives                                                          PW

 DFT+U| Method                                                          MULLIKEN
 DFT+U| Check atomic kind information for details

 FUNCTIONAL| PBE:
 FUNCTIONAL| J.P.Perdew, K.Burke, M.Ernzerhof, Phys. Rev. Letter, vol. 77, n 18,
 FUNCTIONAL|  pp. 3865-3868, (1996) {spin polarized}                            


 QS| Method:                                                                 GPW
 QS| Density plane wave grid type                        NON-SPHERICAL FULLSPACE
 QS| Number of grid levels:                                                    4
 QS| Density cutoff [a.u.]:                                                300.0
 QS| Multi grid cutoff [a.u.]: 1) grid level                               300.0
 QS|                           2) grid level                               100.0
 QS|                           3) grid level                                33.3
 QS|                           4) grid level                                11.1
 QS| Grid level progression factor:                                          3.0
 QS| Relative density cutoff [a.u.]:                                        20.0
 QS| Interaction thresholds: eps_pgf_orb:                                1.0E-06
 QS|                         eps_filter_matrix:                          0.0E+00
 QS|                         eps_core_charge:                            1.0E-14
 QS|                         eps_rho_gspace:                             1.0E-12
 QS|                         eps_rho_rspace:                             1.0E-12
 QS|                         eps_gvg_rspace:                             1.0E-06
 QS|                         eps_ppl:                                    1.0E-02
 QS|                         eps_ppnl:                                   1.0E-08


 ATOMIC KIND INFORMATION

  1. Atomic kind: Ti                                    Number of atoms:      64

     Orbital Basis Set                                    DZVP-MOLOPT-SR-GTH-q12

       Number of orbital shell sets:                                           1
       Number of orbital shells:                                               8
       Number of primitive Cartesian functions:                                6
       Number of Cartesian basis functions:                                   31
       Number of spherical basis functions:                                   26
       Norm type:                                                              2

       Normalised Cartesian orbitals:

                        Set   Shell   Orbital            Exponent    Coefficient

                          1       1    2s                7.884570       0.015554
                                                         3.894698       0.963603
                                                         1.513589      -0.631435
                                                         0.596768      -0.343022
                                                         0.222222      -0.006534
                                                         0.077078       0.007652

                          1       2    3s                7.884570      -0.009340
                                                         3.894698       0.212624
                                                         1.513589      -0.258368
                                                         0.596768      -0.226206
                                                         0.222222       0.039438
                                                         0.077078       0.107179

                          1       3    4s                7.884570       0.276563
                                                         3.894698       0.105452
                                                         1.513589       0.085149
                                                         0.596768       0.882541
                                                         0.222222      -0.696223
                                                         0.077078       0.156638

                          1       4    3px               7.884570      -2.034794
                                                         3.894698       0.782008
                                                         1.513589       1.253903
                                                         0.596768       0.347823
                                                         0.222222       0.016778
                                                         0.077078      -0.000433
                          1       4    3py               7.884570      -2.034794
                                                         3.894698       0.782008
                                                         1.513589       1.253903
                                                         0.596768       0.347823
                                                         0.222222       0.016778
                                                         0.077078      -0.000433
                          1       4    3pz               7.884570      -2.034794
                                                         3.894698       0.782008
                                                         1.513589       1.253903
                                                         0.596768       0.347823
                                                         0.222222       0.016778
                                                         0.077078      -0.000433

                          1       5    4px               7.884570       0.376572
                                                         3.894698      -0.182875
                                                         1.513589      -0.474776
                                                         0.596768      -0.081757
                                                         0.222222       0.064432
                                                         0.077078       0.047279
                          1       5    4py               7.884570       0.376572
                                                         3.894698      -0.182875
                                                         1.513589      -0.474776
                                                         0.596768      -0.081757
                                                         0.222222       0.064432
                                                         0.077078       0.047279
                          1       5    4pz               7.884570       0.376572
                                                         3.894698      -0.182875
                                                         1.513589      -0.474776
                                                         0.596768      -0.081757
                                                         0.222222       0.064432
                                                         0.077078       0.047279

                          1       6    4dx2              7.884570       3.047350
                                                         3.894698       3.289529
                                                         1.513589       1.060616
                                                         0.596768       0.249930
                                                         0.222222       0.038806
                                                         0.077078       0.002319
                          1       6    4dxy              7.884570       5.278165
                                                         3.894698       5.697631
                                                         1.513589       1.837041
                                                         0.596768       0.432892
                                                         0.222222       0.067214
                                                         0.077078       0.004017
                          1       6    4dxz              7.884570       5.278165
                                                         3.894698       5.697631
                                                         1.513589       1.837041
                                                         0.596768       0.432892
                                                         0.222222       0.067214
                                                         0.077078       0.004017
                          1       6    4dy2              7.884570       3.047350
                                                         3.894698       3.289529
                                                         1.513589       1.060616
                                                         0.596768       0.249930
                                                         0.222222       0.038806
                                                         0.077078       0.002319
                          1       6    4dyz              7.884570       5.278165
                                                         3.894698       5.697631
                                                         1.513589       1.837041
                                                         0.596768       0.432892
                                                         0.222222       0.067214
                                                         0.077078       0.004017
                          1       6    4dz2              7.884570       3.047350
                                                         3.894698       3.289529
                                                         1.513589       1.060616
                                                         0.596768       0.249930
                                                         0.222222       0.038806
                                                         0.077078       0.002319

                          1       7    5dx2              7.884570      -2.119015
                                                         3.894698      -1.237751
                                                         1.513589      -0.746777
                                                         0.596768      -0.071514
                                                         0.222222       0.004086
                                                         0.077078       0.017595
                          1       7    5dxy              7.884570      -3.670241
                                                         3.894698      -2.143848
                                                         1.513589      -1.293455
                                                         0.596768      -0.123865
                                                         0.222222       0.007077
                                                         0.077078       0.030475
                          1       7    5dxz              7.884570      -3.670241
                                                         3.894698      -2.143848
                                                         1.513589      -1.293455
                                                         0.596768      -0.123865
                                                         0.222222       0.007077
                                                         0.077078       0.030475
                          1       7    5dy2              7.884570      -2.119015
                                                         3.894698      -1.237751
                                                         1.513589      -0.746777
                                                         0.596768      -0.071514
                                                         0.222222       0.004086
                                                         0.077078       0.017595
                          1       7    5dyz              7.884570      -3.670241
                                                         3.894698      -2.143848
                                                         1.513589      -1.293455
                                                         0.596768      -0.123865
                                                         0.222222       0.007077
                                                         0.077078       0.030475
                          1       7    5dz2              7.884570      -2.119015
                                                         3.894698      -1.237751
                                                         1.513589      -0.746777
                                                         0.596768      -0.071514
                                                         0.222222       0.004086
                                                         0.077078       0.017595

                          1       8    5fx3              7.884570      -0.342058
                                                         3.894698       0.375798
                                                         1.513589      -0.706469
                                                         0.596768      -0.229994
                                                         0.222222      -0.012723
                                                         0.077078       0.003932
                          1       8    5fx2y             7.884570      -0.764866
                                                         3.894698       0.840310
                                                         1.513589      -1.579712
                                                         0.596768      -0.514282
                                                         0.222222      -0.028450
                                                         0.077078       0.008792
                          1       8    5fx2z             7.884570      -0.764866
                                                         3.894698       0.840310
                                                         1.513589      -1.579712
                                                         0.596768      -0.514282
                                                         0.222222      -0.028450
                                                         0.077078       0.008792
                          1       8    5fxy2             7.884570      -0.764866
                                                         3.894698       0.840310
                                                         1.513589      -1.579712
                                                         0.596768      -0.514282
                                                         0.222222      -0.028450
                                                         0.077078       0.008792
                          1       8    5fxyz             7.884570      -1.324787
                                                         3.894698       1.455460
                                                         1.513589      -2.736142
                                                         0.596768      -0.890763
                                                         0.222222      -0.049276
                                                         0.077078       0.015229
                          1       8    5fxz2             7.884570      -0.764866
                                                         3.894698       0.840310
                                                         1.513589      -1.579712
                                                         0.596768      -0.514282
                                                         0.222222      -0.028450
                                                         0.077078       0.008792
                          1       8    5fy3              7.884570      -0.342058
                                                         3.894698       0.375798
                                                         1.513589      -0.706469
                                                         0.596768      -0.229994
                                                         0.222222      -0.012723
                                                         0.077078       0.003932
                          1       8    5fy2z             7.884570      -0.764866
                                                         3.894698       0.840310
                                                         1.513589      -1.579712
                                                         0.596768      -0.514282
                                                         0.222222      -0.028450
                                                         0.077078       0.008792
                          1       8    5fyz2             7.884570      -0.764866
                                                         3.894698       0.840310
                                                         1.513589      -1.579712
                                                         0.596768      -0.514282
                                                         0.222222      -0.028450
                                                         0.077078       0.008792
                          1       8    5fz3              7.884570      -0.342058
                                                         3.894698       0.375798
                                                         1.513589      -0.706469
                                                         0.596768      -0.229994
                                                         0.222222      -0.012723
                                                         0.077078       0.003932

       Atomic covalent radius [Angstrom]:                                  1.320

       Atomic van der Waals radius [Angstrom]:                             1.760

     GTH Potential information for                                   GTH-PBE-q12

       Description:                       Goedecker-Teter-Hutter pseudopotential
                                           Goedecker et al., PRB 54, 1703 (1996)
                                          Hartwigsen et al., PRB 58, 3641 (1998)
                                                      Krack, TCA 114, 145 (2005)

       Gaussian exponent of the core charge distribution:               3.462604
       Electronic configuration (s p d ...):                           4   6   2

       Parameters of the local part of the GTH pseudopotential:

                          rloc        C1          C2          C3          C4
                        0.380000    8.711442   -0.700287

       Parameters of the non-local part of the GTH pseudopotential:

                   l      r(l)      h(i,j,l)

                   0    0.337771    2.575264    3.692971
                                    3.692971   -4.767605
                   1    0.242531   -4.630541    8.870875
                                    8.870875  -10.496161
                   2    0.243317   -9.406653

  2. Atomic kind: O                                     Number of atoms:     128

     Orbital Basis Set                                     DZVP-MOLOPT-SR-GTH-q6

       Number of orbital shell sets:                                           1
       Number of orbital shells:                                               5
       Number of primitive Cartesian functions:                                5
       Number of Cartesian basis functions:                                   14
       Number of spherical basis functions:                                   13
       Norm type:                                                              2

       Normalised Cartesian orbitals:

                        Set   Shell   Orbital            Exponent    Coefficient

                          1       1    2s               10.389228       0.396646
                                                         3.849621       0.208811
                                                         1.388401      -0.301641
                                                         0.496955      -0.274061
                                                         0.162492      -0.033677

                          1       2    3s               10.389228       0.303673
                                                         3.849621       0.240943
                                                         1.388401      -0.313066
                                                         0.496955      -0.043055
                                                         0.162492       0.213991

                          1       3    3px              10.389228      -1.530415
                                                         3.849621      -1.371928
                                                         1.388401      -0.761951
                                                         0.496955      -0.253695
                                                         0.162492      -0.035541
                          1       3    3py              10.389228      -1.530415
                                                         3.849621      -1.371928
                                                         1.388401      -0.761951
                                                         0.496955      -0.253695
                                                         0.162492      -0.035541
                          1       3    3pz              10.389228      -1.530415
                                                         3.849621      -1.371928
                                                         1.388401      -0.761951
                                                         0.496955      -0.253695
                                                         0.162492      -0.035541

                          1       4    4px              10.389228      -0.565392
                                                         3.849621      -0.038231
                                                         1.388401      -0.382373
                                                         0.496955       0.179070
                                                         0.162492       0.122714
                          1       4    4py              10.389228      -0.565392
                                                         3.849621      -0.038231
                                                         1.388401      -0.382373
                                                         0.496955       0.179070
                                                         0.162492       0.122714
                          1       4    4pz              10.389228      -0.565392
                                                         3.849621      -0.038231
                                                         1.388401      -0.382373
                                                         0.496955       0.179070
                                                         0.162492       0.122714

                          1       5    4dx2             10.389228       1.867377
                                                         3.849621       0.670994
                                                         1.388401       1.353441
                                                         0.496955       0.273538
                                                         0.162492       0.006620
                          1       5    4dxy             10.389228       3.234392
                                                         3.849621       1.162195
                                                         1.388401       2.344229
                                                         0.496955       0.473781
                                                         0.162492       0.011466
                          1       5    4dxz             10.389228       3.234392
                                                         3.849621       1.162195
                                                         1.388401       2.344229
                                                         0.496955       0.473781
                                                         0.162492       0.011466
                          1       5    4dy2             10.389228       1.867377
                                                         3.849621       0.670994
                                                         1.388401       1.353441
                                                         0.496955       0.273538
                                                         0.162492       0.006620
                          1       5    4dyz             10.389228       3.234392
                                                         3.849621       1.162195
                                                         1.388401       2.344229
                                                         0.496955       0.473781
                                                         0.162492       0.011466
                          1       5    4dz2             10.389228       1.867377
                                                         3.849621       0.670994
                                                         1.388401       1.353441
                                                         0.496955       0.273538
                                                         0.162492       0.006620

       Atomic covalent radius [Angstrom]:                                  0.730

       Atomic van der Waals radius [Angstrom]:                             1.520

     GTH Potential information for                                    GTH-PBE-q6

       Description:                       Goedecker-Teter-Hutter pseudopotential
                                           Goedecker et al., PRB 54, 1703 (1996)
                                          Hartwigsen et al., PRB 58, 3641 (1998)
                                                      Krack, TCA 114, 145 (2005)

       Gaussian exponent of the core charge distribution:               8.360253
       Electronic configuration (s p d ...):                               2   4

       Parameters of the local part of the GTH pseudopotential:

                          rloc        C1          C2          C3          C4
                        0.244554  -16.667215    2.487311

       Parameters of the non-local part of the GTH pseudopotential:

                   l      r(l)      h(i,j,l)

                   0    0.220956   18.337458
                   1    0.211332

     A DFT+U correction is applied to atoms of this atomic kind:
       Angular quantum momentum number L:                                      1
       U(eff) = (U - J) value in [eV]:                                     5.500


 MOLECULE KIND INFORMATION


 All atoms are their own molecule, skipping detailed information


 TOTAL NUMBERS AND MAXIMUM NUMBERS

  Total number of            - Atomic kinds:                                   2
                             - Atoms:                                        192
                             - Shell sets:                                   192
                             - Shells:                                      1152
                             - Primitive Cartesian functions:               1024
                             - Cartesian basis functions:                   3776
                             - Spherical basis functions:                   3328

  Maximum angular momentum of- Orbital basis functions:                        3
                             - Local part of the GTH pseudopotential:          2
                             - Non-local part of the GTH pseudopotential:      3


 MODULE QUICKSTEP: ATOMIC COORDINATES IN ANGSTROM

   Atom Kind Element         X             Y             Z       Z(eff)     Mass
      1    1 Ti   22      0.000925      0.000927      0.000001  12.0000  47.8670
      2    1 Ti   22      1.888265      1.888266      4.807509  12.0000  47.8670
      3    1 Ti   22      0.000899      1.888292      2.401889  12.0000  47.8670
      4    1 Ti   22      1.888294      0.000894      7.213130  12.0000  47.8670
      5    1 Ti   22      0.000897      3.776182      0.002666  12.0000  47.8670
      6    1 Ti   22      1.888298     13.237697      4.805610  12.0000  47.8670
      7    1 Ti   22     11.350391      1.888270      2.403691  12.0000  47.8670
      8    1 Ti   22      5.668603      0.000865      7.217326  12.0000  47.8670
      9    1 Ti   22      1.888250      3.776146      7.210420  12.0000  47.8670
     10    1 Ti   22      0.000922     13.237678      2.403795  12.0000  47.8670
     11    1 Ti   22      5.668606      1.888255      4.803321  12.0000  47.8670
     12    1 Ti   22     11.350367      0.000904     -0.001806  12.0000  47.8670
     13    1 Ti   22      3.776180      0.000907     -0.002663  12.0000  47.8670
     14    1 Ti   22     13.237696      1.888290      4.809410  12.0000  47.8670
     15    1 Ti   22     13.237681      0.000913      7.211230  12.0000  47.8670
     16    1 Ti   22      3.776153      1.888258      2.404601  12.0000  47.8670
     17    1 Ti   22      1.888252      5.668607      4.811699  12.0000  47.8670
     18    1 Ti   22      0.000903     11.350372      0.001806  12.0000  47.8670
     19    1 Ti   22      0.000865      5.668604      2.397692  12.0000  47.8670
     20    1 Ti   22      1.888273     11.350386      7.211331  12.0000  47.8670
     21    1 Ti   22      0.000872      7.570260      0.006026  12.0000  47.8670
     22    1 Ti   22      1.888258      9.462615      4.808266  12.0000  47.8670
     23    1 Ti   22      7.570255      1.888259      2.407909  12.0000  47.8670
     24    1 Ti   22      9.462588      0.000891      7.213844  12.0000  47.8670
     25    1 Ti   22      1.888255      7.570248      7.207112  12.0000  47.8670
     26    1 Ti   22      0.000897      9.462588      2.401179  12.0000  47.8670
     27    1 Ti   22      9.462615      1.888256      4.806757  12.0000  47.8670
     28    1 Ti   22      7.570254      0.000877     -0.006027  12.0000  47.8670
     29    1 Ti   22      3.776139      3.776147     -0.000001  12.0000  47.8670
     30    1 Ti   22     13.237684     13.237679      4.807513  12.0000  47.8670
     31    1 Ti   22     11.350396      5.668609      2.399507  12.0000  47.8670
     32    1 Ti   22      5.668612     11.350392      7.215512  12.0000  47.8670
     33    1 Ti   22     13.237694      3.776171      7.208566  12.0000  47.8670
     34    1 Ti   22      3.776179     13.237698      2.406455  12.0000  47.8670
     35    1 Ti   22      5.668492      5.668499      4.807508  12.0000  47.8670
     36    1 Ti   22     11.350395     11.350397      0.000001  12.0000  47.8670
     37    1 Ti   22     11.350368     13.237698      2.405599  12.0000  47.8670
     38    1 Ti   22      5.668559      3.776138      7.214660  12.0000  47.8670
     39    1 Ti   22      3.776160     11.350412     -0.000907  12.0000  47.8670
     40    1 Ti   22     13.237722      5.668600      4.813607  12.0000  47.8670
     41    1 Ti   22      5.668609     13.237724      4.801413  12.0000  47.8670
     42    1 Ti   22     11.350400      3.776159      0.000907  12.0000  47.8670
     43    1 Ti   22     13.237701     11.350355      7.209424  12.0000  47.8670
     44    1 Ti   22      3.776136      5.668563      2.400357  12.0000  47.8670
     45    1 Ti   22      3.776144      7.570299      0.003360  12.0000  47.8670
     46    1 Ti   22     13.237699      9.462586      4.810120  12.0000  47.8670
     47    1 Ti   22      7.570348      5.668499      2.403723  12.0000  47.8670
     48    1 Ti   22      9.462615     11.350394      7.212083  12.0000  47.8670
     49    1 Ti   22     13.237722      7.570247      7.205204  12.0000  47.8670
     50    1 Ti   22      3.776136      9.462623      2.403843  12.0000  47.8670
     51    1 Ti   22      9.462614      5.668567      4.811005  12.0000  47.8670
     52    1 Ti   22      7.570258     11.350407     -0.004210  12.0000  47.8670
     53    1 Ti   22     11.350401      9.462611      2.402936  12.0000  47.8670
     54    1 Ti   22      5.668496      7.570345      7.211298  12.0000  47.8670
     55    1 Ti   22      5.668567      9.462619      4.804015  12.0000  47.8670
     56    1 Ti   22     11.350399      7.570256      0.004210  12.0000  47.8670
     57    1 Ti   22      9.462620      3.776133      7.211177  12.0000  47.8670
     58    1 Ti   22      7.570257     13.237727      2.409817  12.0000  47.8670
     59    1 Ti   22      7.570287      3.776148     -0.003359  12.0000  47.8670
     60    1 Ti   22      9.462591     13.237700      4.804901  12.0000  47.8670
     61    1 Ti   22      7.570345      7.570351      0.000001  12.0000  47.8670
     62    1 Ti   22      9.462626      9.462625      4.807509  12.0000  47.8670
     63    1 Ti   22      7.570289      9.462617      2.407204  12.0000  47.8670
     64    1 Ti   22      9.462612      7.570286      7.207815  12.0000  47.8670
     65    2 O     8      0.000609      0.001543      1.985605   6.0000  15.9994
     66    2 O     8      1.884820      1.887470      6.793167   6.0000  15.9994
     67    2 O     8      0.001525      1.884804      4.389419   6.0000  15.9994
     68    2 O     8      1.887495      0.000612      9.196835   6.0000  15.9994
     69    2 O     8      1.884804      0.001525      5.225603   6.0000  15.9994
     70    2 O     8      0.000612      1.887494      0.418186   6.0000  15.9994
     71    2 O     8      1.887470      1.884819      2.821856   6.0000  15.9994
     72    2 O     8      0.001543      0.000609      7.629416   6.0000  15.9994
     73    2 O     8      0.000633      3.775895      1.982245   6.0000  15.9994
     74    2 O     8      1.884805     13.237022      6.793174   6.0000  15.9994
     75    2 O     8     11.351139      1.884816      4.389468   6.0000  15.9994
     76    2 O     8      5.672353      0.000589      9.198461   6.0000  15.9994
     77    2 O     8      1.884865      3.775847      5.228875   6.0000  15.9994
     78    2 O     8      0.000609     13.237006      0.418158   6.0000  15.9994
     79    2 O     8      5.672315      1.884825      2.820368   6.0000  15.9994
     80    2 O     8     11.351117      0.000610      7.629389   6.0000  15.9994
     81    2 O     8      3.775896      0.000634      7.632773   6.0000  15.9994
     82    2 O     8     13.237020      1.884804      2.821847   6.0000  15.9994
     83    2 O     8     13.237007      0.000609      9.196861   6.0000  15.9994
     84    2 O     8      3.775848      1.884866      4.386144   6.0000  15.9994
     85    2 O     8      1.884824      5.672316      6.794654   6.0000  15.9994
     86    2 O     8      0.000610     11.351117      1.985634   6.0000  15.9994
     87    2 O     8      0.000589      5.672352      0.416558   6.0000  15.9994
     88    2 O     8      1.884816     11.351140      5.225553   6.0000  15.9994
     89    2 O     8      0.000588      7.566597      1.987272   6.0000  15.9994
     90    2 O     8      1.884864      9.462850      6.790009   6.0000  15.9994
     91    2 O     8      7.566639      1.884825      4.390979   6.0000  15.9994
     92    2 O     8      9.462804      0.000632      9.193619   6.0000  15.9994
     93    2 O     8      1.884824      7.566640      5.224042   6.0000  15.9994
     94    2 O     8      0.000632      9.462803      0.421401   6.0000  15.9994
     95    2 O     8      9.462849      1.884864      2.825011   6.0000  15.9994
     96    2 O     8      7.566598      0.000589      7.627749   6.0000  15.9994
     97    2 O     8      3.769431      0.001512      1.986348   6.0000  15.9994
     98    2 O     8     13.237870      1.887495      6.793059   6.0000  15.9994
     99    2 O     8      0.001506      5.655344      4.389634   6.0000  15.9994
    100    2 O     8      1.887472     11.353722      9.196928   6.0000  15.9994
    101    2 O     8     13.237872      0.001543      5.225675   6.0000  15.9994
    102    2 O     8      3.769485      1.887470      0.417485   6.0000  15.9994
    103    2 O     8      1.887469      5.655458      2.821702   6.0000  15.9994
    104    2 O     8      0.001525     11.353739      7.629356   6.0000  15.9994
    105    2 O     8     11.353723      1.887471      0.418093   6.0000  15.9994
    106    2 O     8      5.655350      0.001507      5.225385   6.0000  15.9994
    107    2 O     8      5.655455      1.887470      6.793316   6.0000  15.9994
    108    2 O     8     11.353739      0.001526      1.985666   6.0000  15.9994
    109    2 O     8      1.887469      3.769485      9.197534   6.0000  15.9994
    110    2 O     8      0.001543     13.237871      4.389343   6.0000  15.9994
    111    2 O     8      0.001512      3.769430      7.628669   6.0000  15.9994
    112    2 O     8      1.887495     13.237870      2.821959   6.0000  15.9994
    113    2 O     8      3.769534      3.775838      1.983058   6.0000  15.9994
    114    2 O     8     13.237872     13.237007      6.793092   6.0000  15.9994
    115    2 O     8     11.351135      5.655448      4.389623   6.0000  15.9994
    116    2 O     8      5.672317     11.353718      9.198410   6.0000  15.9994
    117    2 O     8     13.237849      3.775897      5.229031   6.0000  15.9994
    118    2 O     8      3.769434     13.237031      0.417405   6.0000  15.9994
    119    2 O     8      5.672329      5.655473      2.819997   6.0000  15.9994
    120    2 O     8     11.351138     11.353726      7.629304   6.0000  15.9994
    121    2 O     8     11.353738     13.237019      0.418092   6.0000  15.9994
    122    2 O     8      5.655499      3.775843      5.228674   6.0000  15.9994
    123    2 O     8      3.775850     11.353678      7.632625   6.0000  15.9994
    124    2 O     8     13.237034      5.655350      2.821629   6.0000  15.9994
    125    2 O     8      5.655349     13.237035      6.793388   6.0000  15.9994
    126    2 O     8     11.353677      3.775849      1.982393   6.0000  15.9994
    127    2 O     8     13.237020     11.353738      9.196932   6.0000  15.9994
    128    2 O     8      3.775839      5.655498      4.386348   6.0000  15.9994
    129    2 O     8      5.655472      5.672335      6.795027   6.0000  15.9994
    130    2 O     8     11.353726     11.351138      1.985721   6.0000  15.9994
    131    2 O     8     13.237031      3.769432      9.197613   6.0000  15.9994
    132    2 O     8      3.775896     13.237851      4.385984   6.0000  15.9994
    133    2 O     8     11.353717      5.672316      0.416609   6.0000  15.9994
    134    2 O     8      5.655452     11.351135      5.225396   6.0000  15.9994
    135    2 O     8      3.775840      3.769537      7.631963   6.0000  15.9994
    136    2 O     8     13.237005     13.237871      2.821928   6.0000  15.9994
    137    2 O     8     13.237872     11.351116      5.225652   6.0000  15.9994
    138    2 O     8      3.769506      5.672306      0.415928   6.0000  15.9994
    139    2 O     8      5.672355     13.237894      2.820328   6.0000  15.9994
    140    2 O     8     11.351137      3.769478      7.628693   6.0000  15.9994
    141    2 O     8      3.769478     11.351139      1.986326   6.0000  15.9994
    142    2 O     8     13.237893      5.672351      6.794692   6.0000  15.9994
    143    2 O     8     11.351117     13.237871      4.389372   6.0000  15.9994
    144    2 O     8      5.672306      3.769508      9.199095   6.0000  15.9994
    145    2 O     8      3.769508      7.566642      1.987908   6.0000  15.9994
    146    2 O     8     13.237852      9.462804      6.789850   6.0000  15.9994
    147    2 O     8      7.566606      5.655473      4.391360   6.0000  15.9994
    148    2 O     8      9.462847     11.353678      9.193771   6.0000  15.9994
    149    2 O     8     13.237894      7.566597      5.224010   6.0000  15.9994
    150    2 O     8      3.769540      9.462851      0.420591   6.0000  15.9994
    151    2 O     8      9.462841      5.655503      2.824824   6.0000  15.9994
    152    2 O     8      7.566639     11.353718      7.627794   6.0000  15.9994
    153    2 O     8     11.353678      9.462845      0.421252   6.0000  15.9994
    154    2 O     8      5.655474      7.566609      5.223663   6.0000  15.9994
    155    2 O     8      5.655501      9.462845      6.790196   6.0000  15.9994
    156    2 O     8     11.353717      7.566635      1.987228   6.0000  15.9994
    157    2 O     8      9.462851      3.769539      9.194429   6.0000  15.9994
    158    2 O     8      7.566596     13.237895      4.391014   6.0000  15.9994
    159    2 O     8      7.566640      3.769509      7.627113   6.0000  15.9994
    160    2 O     8      9.462802     13.237851      2.825176   6.0000  15.9994
    161    2 O     8      7.583266      0.001506      1.985893   6.0000  15.9994
    162    2 O     8      9.469086      1.887471      6.793755   6.0000  15.9994
    163    2 O     8      0.001512      9.469139      4.390080   6.0000  15.9994
    164    2 O     8      1.887468      7.583168      9.197083   6.0000  15.9994
    165    2 O     8      9.469138      0.001512      5.224942   6.0000  15.9994
    166    2 O     8      7.583162      1.887468      0.417936   6.0000  15.9994
    167    2 O     8      1.887468      9.469086      2.821266   6.0000  15.9994
    168    2 O     8      0.001506      7.583261      7.629126   6.0000  15.9994
    169    2 O     8      7.583115      3.775839      1.982605   6.0000  15.9994
    170    2 O     8      9.469137     13.237032      6.793835   6.0000  15.9994
    171    2 O     8     11.351136      9.469094      4.390057   6.0000  15.9994
    172    2 O     8      5.672329      7.583141      9.198775   6.0000  15.9994
    173    2 O     8      9.469037      3.775840      5.228238   6.0000  15.9994
    174    2 O     8      7.583269     13.237036      0.417862   6.0000  15.9994
    175    2 O     8      5.672304      9.469067      2.819701   6.0000  15.9994
    176    2 O     8     11.351138      7.583166      7.629141   6.0000  15.9994
    177    2 O     8      3.775841      7.583111      7.632416   6.0000  15.9994
    178    2 O     8     13.237030      9.469135      2.821187   6.0000  15.9994
    179    2 O     8     13.237036      7.583270      9.197157   6.0000  15.9994
    180    2 O     8      3.775838      9.469038      4.386782   6.0000  15.9994
    181    2 O     8      9.469066      5.672310      6.795317   6.0000  15.9994
    182    2 O     8      7.583169     11.351137      1.985879   6.0000  15.9994
    183    2 O     8      7.583136      5.672327      0.416248   6.0000  15.9994
    184    2 O     8      9.469093     11.351137      5.224966   6.0000  15.9994
    185    2 O     8      7.583136      7.566607      1.987598   6.0000  15.9994
    186    2 O     8      9.469035      9.462853      6.790646   6.0000  15.9994
    187    2 O     8      7.566637      9.469068      4.391639   6.0000  15.9994
    188    2 O     8      9.462845      7.583112      9.193965   6.0000  15.9994
    189    2 O     8      9.469065      7.566644      5.223380   6.0000  15.9994
    190    2 O     8      7.583111      9.462842      0.421056   6.0000  15.9994
    191    2 O     8      9.462850      9.469035      2.824375   6.0000  15.9994
    192    2 O     8      7.566610      7.583136      7.627426   6.0000  15.9994



 SCF PARAMETERS         Density guess:                                   RESTART
                        --------------------------------------------------------
                        max_scf:                                              40
                        max_scf_history:                                       0
                        max_diis:                                              4
                        --------------------------------------------------------
                        eps_scf:                                        1.00E-06
                        eps_scf_history:                                0.00E+00
                        eps_diis:                                       1.00E-01
                        eps_eigval:                                     1.00E-05
                        --------------------------------------------------------
                        level_shift [a.u.]:                             0.000000
                        --------------------------------------------------------
                        Outer loop SCF in use 
                        No variables optimised in outer loop
                        eps_scf                                         1.00E-06
                        max_scf                                               60
                        No outer loop optimization
                        step_size                                       5.00E-01

 PW_GRID| Information for grid number                                          1
 PW_GRID| Grid distributed over                                   128 processors
 PW_GRID| Real space group dimensions                                   128    1
 PW_GRID| the grid is blocked:                                                NO
 PW_GRID| Cutoff [a.u.]                                                    300.0
 PW_GRID| spherical cutoff:                                                   NO
 PW_GRID|   Bounds   1           -112     112                Points:         225
 PW_GRID|   Bounds   2           -112     112                Points:         225
 PW_GRID|   Bounds   3            -72      71                Points:         144
 PW_GRID| Volume element (a.u.^3)  0.2035E-02     Volume (a.u.^3)     14833.7304
 PW_GRID| Grid span                                                    FULLSPACE
 PW_GRID|   Distribution                         Average         Max         Min
 PW_GRID|   G-Vectors                            56953.1       57150       56925
 PW_GRID|   G-Rays                                 253.1         254         253
 PW_GRID|   Real Space Points                    56953.1       64800       32400

 PW_GRID| Information for grid number                                          2
 PW_GRID| Number of the reference grid                                         1
 PW_GRID| Grid distributed over                                   128 processors
 PW_GRID| Real space group dimensions                                   128    1
 PW_GRID| the grid is blocked:                                                NO
 PW_GRID| Cutoff [a.u.]                                                    100.0
 PW_GRID| spherical cutoff:                                                   NO
 PW_GRID|   Bounds   1            -67      67                Points:         135
 PW_GRID|   Bounds   2            -67      67                Points:         135
 PW_GRID|   Bounds   3            -40      40                Points:          81
 PW_GRID| Volume element (a.u.^3)  0.1005E-01     Volume (a.u.^3)     14833.7304
 PW_GRID| Grid span                                                    FULLSPACE
 PW_GRID|   Distribution                         Average         Max         Min
 PW_GRID|   G-Vectors                            11533.0       12150       10800
 PW_GRID|   G-Rays                                  85.4          90          80
 PW_GRID|   Real Space Points                    11533.0       21870       10935

 PW_GRID| Information for grid number                                          3
 PW_GRID| Number of the reference grid                                         1
 PW_GRID| Grid distributed over                                   128 processors
 PW_GRID| Real space group dimensions                                     8   16
 PW_GRID| the grid is blocked:                                                NO
 PW_GRID| Cutoff [a.u.]                                                     33.3
 PW_GRID| spherical cutoff:                                                   NO
 PW_GRID|   Bounds   1            -37      37                Points:          75
 PW_GRID|   Bounds   2            -37      37                Points:          75
 PW_GRID|   Bounds   3            -24      23                Points:          48
 PW_GRID| Volume element (a.u.^3)  0.5494E-01     Volume (a.u.^3)     14833.7304
 PW_GRID| Grid span                                                    FULLSPACE
 PW_GRID|   Distribution                         Average         Max         Min
 PW_GRID|   G-Vectors                             2109.4        2475        1725
 PW_GRID|   G-Rays                                  28.1          33          23
 PW_GRID|   Real Space Points                     2109.4        2400        1728

 PW_GRID| Information for grid number                                          4
 PW_GRID| Number of the reference grid                                         1
 PW_GRID| Grid distributed over                                   128 processors
 PW_GRID| Real space group dimensions                                     8   16
 PW_GRID| the grid is blocked:                                                NO
 PW_GRID| Cutoff [a.u.]                                                     11.1
 PW_GRID| spherical cutoff:                                                   NO
 PW_GRID|   Bounds   1            -22      22                Points:          45
 PW_GRID|   Bounds   2            -22      22                Points:          45
 PW_GRID|   Bounds   3            -13      13                Points:          27
 PW_GRID| Volume element (a.u.^3)  0.2713         Volume (a.u.^3)     14833.7304
 PW_GRID| Grid span                                                    FULLSPACE
 PW_GRID|   Distribution                         Average         Max         Min
 PW_GRID|   G-Vectors                              427.1         585         270
 PW_GRID|   G-Rays                                   9.5          13           6
 PW_GRID|   Real Space Points                      427.1         486         270

 POISSON| Solver                                                        PERIODIC
 POISSON| Periodicity                                                        XYZ

 RS_GRID| Information for grid number                                          1
 RS_GRID|   Bounds   1           -112     112                Points:         225
 RS_GRID|   Bounds   2           -112     112                Points:         225
 RS_GRID|   Bounds   3            -72      71                Points:         144
 RS_GRID| Real space distribution over                                  8 groups
 RS_GRID| Real space distribution along direction                              1
 RS_GRID| Border size                                                         26
 RS_GRID| Real space distribution over                                 16 groups
 RS_GRID| Real space distribution along direction                              2
 RS_GRID| Border size                                                         26
 RS_GRID|   Distribution                         Average         Max         Min
 RS_GRID|   Planes                                  80.1          81          80
 RS_GRID|   Distribution                         Average         Max         Min
 RS_GRID|   Planes                                  66.1          67          66

 RS_GRID| Information for grid number                                          2
 RS_GRID|   Bounds   1            -67      67                Points:         135
 RS_GRID|   Bounds   2            -67      67                Points:         135
 RS_GRID|   Bounds   3            -40      40                Points:          81
 RS_GRID| Real space distribution over                                  8 groups
 RS_GRID| Real space distribution along direction                              1
 RS_GRID| Border size                                                         24
 RS_GRID| Real space distribution over                                 16 groups
 RS_GRID| Real space distribution along direction                              2
 RS_GRID| Border size                                                         24
 RS_GRID|   Distribution                         Average         Max         Min
 RS_GRID|   Planes                                  64.9          65          64
 RS_GRID|   Distribution                         Average         Max         Min
 RS_GRID|   Planes                                  56.4          57          56

 RS_GRID| Information for grid number                                          3
 RS_GRID|   Bounds   1            -37      37                Points:          75
 RS_GRID|   Bounds   2            -37      37                Points:          75
 RS_GRID|   Bounds   3            -24      23                Points:          48
 RS_GRID| Real space fully replicated
 RS_GRID| Group size                                                           1

 RS_GRID| Information for grid number                                          4
 RS_GRID|   Bounds   1            -22      22                Points:          45
 RS_GRID|   Bounds   2            -22      22                Points:          45
 RS_GRID|   Bounds   3            -13      13                Points:          27
 RS_GRID| Real space fully replicated
 RS_GRID| Group size                                                           1

 BFGS| Use rational function optimization for step estimation:                NO
 BFGS| Use model Hessian for initial guess:                                  YES
 BFGS| Restart Hessian:                                                       NO
 BFGS| Trust radius:                                                       0.472

 *******************************************************************************
 ***                     STARTING GEOMETRY OPTIMIZATION                      ***
 ***                                   BFGS                                  ***
 *******************************************************************************

 Spin 1

 Number of electrons:                                                        768
 Number of occupied orbitals:                                                768
 Number of molecular orbitals:                                               768

 Spin 2

 Number of electrons:                                                        767
 Number of occupied orbitals:                                                767
 Number of molecular orbitals:                                               767

 Number of orbital functions:                                               3328
 Number of independent orbital functions:                                   3328

 Extrapolation method: initial_guess

 *** WARNING in qs_initial_guess.F:306 :: User requested to restart the    ***
 *** wavefunction from the file named: tio2-RESTART.wfn. This file does    ***
 *** not exist. Please check the existence of the file or change properly  ***
 *** the value of the keyword WFN_RESTART_FILE_NAME. Calculation continues ***
 *** using ATOMIC GUESS.                                                   ***


 Atomic guess: The first density matrix is obtained in terms of atomic orbitals
               and electronic configurations assigned to each atomic kind

 Guess for atomic kind: Ti

 Electronic structure
    Total number of core electrons                                         10.00
    Total number of valence electrons                                      12.00
    Total number of electrons                                              22.00
    Multiplicity                                                   not specified
    S   [  2.00  2.00] 2.00  2.00
    P   [  6.00] 6.00
    D      2.00


 *******************************************************************************
                  Iteration          Convergence                     Energy [au]
 *******************************************************************************
                          1         2.59099                     -56.573945749309
                          2        0.737518                     -57.461623245624
                          3        0.123244E-01                 -57.676656834797
                          4        0.338536E-02                 -57.676690535970
                          5        0.252157E-03                 -57.676697146183
                          6        0.162704E-05                 -57.676697160103
                          7        0.846593E-06                 -57.676697160104

 Energy components [Hartree]           Total Energy ::          -57.676697160104
                                        Band Energy ::          -13.440549799540
                                     Kinetic Energy ::           25.008468428381
                                   Potential Energy ::          -82.685165588485
                                      Virial (-V/T) ::            3.306286661467
                                        Core Energy ::          -97.155838374470
                                          XC Energy ::           -6.919409696495
                                     Coulomb Energy ::           46.398550910862
                       Total Pseudopotential Energy ::         -122.259340742080
                       Local Pseudopotential Energy ::         -118.928992669456
                    Nonlocal Pseudopotential Energy ::           -3.330348072625
                                        Confinement ::            0.950339392289

 Orbital energies  State     L     Occupation   Energy[a.u.]          Energy[eV]

                       1     0          2.000      -2.312566          -62.928123
                       2     0          2.000      -0.123060           -3.348633

                       1     1          6.000      -1.385567          -37.703193

                       1     2          2.000      -0.127948           -3.481643


 Total Electron Density at R=0:                                         0.004726

 Guess for atomic kind: O

 Electronic structure
    Total number of core electrons                                          2.00
    Total number of valence electrons                                       6.00
    Total number of electrons                                               8.00
    Multiplicity                                                   not specified
    S   [  2.00] 2.00
    P      4.00


 *******************************************************************************
                  Iteration          Convergence                     Energy [au]
 *******************************************************************************
                          1        0.702811                     -15.577904332270
                          2        0.612408                     -15.588447180504
                          3        0.955344E-02                 -15.655871208406
                          4        0.223754E-02                 -15.655885053552
                          5        0.157183E-02                 -15.655885461027
                          6        0.124953E-02                 -15.655885607150
                          7        0.312011E-06                 -15.655885858066

 Energy components [Hartree]           Total Energy ::          -15.655885858066
                                        Band Energy ::           -2.983128125584
                                     Kinetic Energy ::           11.754765134683
                                   Potential Energy ::          -27.410650992749
                                      Virial (-V/T) ::            2.331875684345
                                        Core Energy ::          -26.153522949072
                                          XC Energy ::           -3.157392363346
                                     Coulomb Energy ::           13.655029454351
                       Total Pseudopotential Energy ::          -37.943026860963
                       Local Pseudopotential Energy ::          -39.220419683052
                    Nonlocal Pseudopotential Energy ::            1.277392822089
                                        Confinement ::            0.347387772086

 Orbital energies  State     L     Occupation   Energy[a.u.]          Energy[eV]

                       1     0          2.000      -0.861522          -23.443215

                       1     1          4.000      -0.315021           -8.572154


 Total Electron Density at R=0:                                         0.000093

 Spin 1
 Re-scaling the density matrix to get the right number of electrons for spin 1
                  # Electrons              Trace(P)               Scaling factor
                          768               768.001                        1.000

 Spin 2
 Re-scaling the density matrix to get the right number of electrons for spin 2
                  # Electrons              Trace(P)               Scaling factor
                          767               768.001                        0.999


 SCF WAVEFUNCTION OPTIMIZATION

  ----------------------------------- OT ---------------------------------------
  Minimizer      : DIIS                : direct inversion
                                         in the iterative subspace
                                         using   7 DIIS vectors
                                         safer DIIS on
  Preconditioner : FULL_SINGLE_INVERSE : inversion of 
                                         H + eS - 2*(Sc)(c^T*H*c+const)(Sc)^T
  Precond_solver : DEFAULT
  stepsize       :    0.08000000                  energy_gap     :    0.08000000
  eps_taylor     :   0.10000E-15                  max_taylor     :             4
  ----------------------------------- OT ---------------------------------------

  Step     Update method      Time    Convergence         Total energy    Change
  ------------------------------------------------------------------------------
     1 OT DIIS     0.80E-01    2.0     0.00999353     -5651.8818546433 -5.65E+03
     2 OT DIIS     0.80E-01    1.5     0.00723035     -5686.4934002496 -3.46E+01
     3 OT DIIS     0.80E-01    1.5     0.00460444     -5718.9592426476 -3.25E+01
     4 OT DIIS     0.80E-01    1.5     0.00365384     -5729.2402862257 -1.03E+01
     5 OT DIIS     0.80E-01    1.5     0.00266828     -5740.5122920406 -1.13E+01
     6 OT DIIS     0.80E-01    1.5     0.00219733     -5747.3647363821 -6.85E+00
     7 OT DIIS     0.80E-01    1.5     0.00184969     -5753.3600074236 -6.00E+00
     8 OT DIIS     0.80E-01    1.5     0.00148022     -5759.2368402096 -5.88E+00
     9 OT DIIS     0.80E-01    1.5     0.00127507     -5762.8585237653 -3.62E+00
    10 OT DIIS     0.80E-01    1.5     0.00099540     -5766.0893954394 -3.23E+00
    11 OT DIIS     0.80E-01    1.5     0.00090850     -5766.9004678891 -8.11E-01
    12 OT DIIS     0.80E-01    1.5     0.00073801     -5768.6661511612 -1.77E+00
    13 OT DIIS     0.80E-01    1.5     0.00060139     -5770.0368912462 -1.37E+00
    14 OT DIIS     0.80E-01    1.5     0.00049794     -5770.9543850431 -9.17E-01
    15 OT DIIS     0.80E-01    1.5     0.00044538     -5771.4345586944 -4.80E-01
    16 OT DIIS     0.80E-01    1.5     0.00037660     -5771.9445433716 -5.10E-01
    17 OT DIIS     0.80E-01    1.5     0.00034436     -5772.1929011202 -2.48E-01
    18 OT DIIS     0.80E-01    1.5     0.00030048     -5772.5014307538 -3.09E-01
    19 OT DIIS     0.80E-01    1.5     0.00026574     -5772.7011289693 -2.00E-01
    20 OT DIIS     0.80E-01    1.5     0.00025263     -5772.8015223520 -1.00E-01
    21 OT DIIS     0.80E-01    1.5     0.00022715     -5773.0007872098 -1.99E-01
    22 OT DIIS     0.80E-01    1.4     0.00020517     -5773.1384265050 -1.38E-01
    23 OT DIIS     0.80E-01    1.5     0.00019083     -5773.2546773004 -1.16E-01
    24 OT DIIS     0.80E-01    1.5     0.00017114     -5773.3374143214 -8.27E-02
    25 OT DIIS     0.80E-01    1.5     0.00016298     -5773.3998720063 -6.25E-02
    26 OT DIIS     0.80E-01    1.5     0.00014695     -5773.4668981336 -6.70E-02
    27 OT DIIS     0.80E-01    1.5     0.00014230     -5773.5190250556 -5.21E-02
    28 OT DIIS     0.80E-01    1.5     0.00013759     -5773.5364101214 -1.74E-02
    29 OT DIIS     0.80E-01    1.5     0.00013733     -5773.5817711604 -4.54E-02
    30 OT DIIS     0.80E-01    1.5     0.00013542     -5773.5856258691 -3.85E-03
    31 OT DIIS     0.80E-01    1.5     0.00011913     -5773.6264389757 -4.08E-02
    32 OT DIIS     0.80E-01    1.4     0.00012264     -5773.6583987661 -3.20E-02
    33 OT DIIS     0.80E-01    1.4     0.00010392     -5773.7009392316 -4.25E-02
    34 OT DIIS     0.80E-01    1.5     0.00009892     -5773.7230471801 -2.21E-02
    35 OT DIIS     0.80E-01    1.5     0.00008995     -5773.7690131632 -4.60E-02
    36 OT DIIS     0.80E-01    1.5     0.00008639     -5773.7952994429 -2.63E-02
    37 OT DIIS     0.80E-01    1.5     0.00008238     -5773.8118672001 -1.66E-02
    38 OT SD       0.80E-01    1.5     0.00008223     -5773.8266557707 -1.48E-02
    39 OT DIIS     0.80E-01    1.4     0.00008078     -5773.8293923658 -2.74E-03
    40 OT DIIS     0.80E-01    1.4     0.00007795     -5773.8544774346 -2.51E-02

  Leaving inner SCF loop after reaching    40 steps.


  Electronic density on regular grids:      -1534.9999999999        0.0000000001
  Core density on regular grids:             1535.9999999995       -0.0000000005
  Total charge density on r-space grids:        0.9999999996
  Total charge density g-space grids:           0.9999999996

  Overlap energy of the core charge distribution:               0.00000000000317
  Self energy of the core charge distribution:             -12156.89556134359555
  Core Hamiltonian energy:                                   3288.10792378358929
  Hartree energy:                                            4007.41144920809666
  Exchange-correlation energy:                               -926.88117224367204

  DFT+U energy:                                                14.40288316102286

  Total energy:                                             -5773.85447743455461

  outer SCF iter =    1 RMS gradient =   0.78E-04 energy =      -5773.8544774346

  ----------------------------------- OT ---------------------------------------
[...]
      -1.00915803     -1.00910418     -1.00902305     -1.00874135
      -1.00869863     -1.00862685     -1.00844115     -1.00840562
      -1.00822526     -1.00817989     -1.00796243     -1.00787951
      -1.00775395     -1.00772954     -1.00769105     -1.00757738
      -1.00753395     -1.00742746     -1.00737743     -1.00731111
      -1.00727504     -1.00724897     -1.00717507     -1.00715945
      -1.00712740     -1.00701438     -1.00700907     -1.00695159
      -1.00691938     -1.00688705     -1.00683872     -1.00682813
      -1.00680141     -1.00677731     -1.00669611     -1.00657837
      -1.00653621     -1.00651059     -1.00647438     -1.00646594
      -1.00638686     -1.00636577     -1.00631157     -1.00628885
      -1.00623723     -1.00619442     -1.00614618     -1.00607361
      -1.00603492     -1.00598859     -1.00597468     -1.00590421
      -1.00582668     -1.00578027     -1.00568018     -1.00551532
      -1.00544122     -1.00539808     -1.00534557     -1.00523859
      -1.00517507     -1.00517062     -1.00512061     -1.00499319
      -1.00494636     -1.00469026     -1.00459875     -1.00453884
      -1.00437390     -1.00416183     -1.00403690     -1.00395664
      -0.41702453     -0.40799551     -0.40784270     -0.40729829
      -0.40717961     -0.39818650     -0.39716560     -0.39689612
      -0.39659192     -0.39626280     -0.39609992     -0.39582047
      -0.39574013     -0.39531157     -0.39519274     -0.39398518
      -0.39383241     -0.39374502     -0.39351840     -0.38539698
      -0.38440488     -0.38326738     -0.38299531     -0.38294498
      -0.38267697     -0.38256080     -0.38220532     -0.38207172
      -0.38199355     -0.38139240     -0.38101603     -0.38034163
      -0.38022673     -0.38009383     -0.37996230     -0.37987117
      -0.37977264     -0.37964589     -0.37962704     -0.37695891
      -0.37394843     -0.37291715     -0.37227070     -0.37202140
      -0.37183313     -0.37046297     -0.37016873     -0.36961358
      -0.36936751     -0.36906144     -0.36871928     -0.36866844
      -0.36853447     -0.36817791     -0.36802608     -0.36788437
      -0.36768973     -0.36704435     -0.36681399     -0.36635347
      -0.36611105     -0.36582785     -0.36569487     -0.36564996
      -0.36539427     -0.36492377     -0.36473498     -0.36443703
      -0.36410499     -0.36403008     -0.36388644     -0.36294256
      -0.36266368     -0.36244066     -0.36230212     -0.36225837
      -0.36212110     -0.36202283     -0.36188543     -0.36166623
      -0.36132953     -0.36122220     -0.36115157     -0.36075694
      -0.36061909     -0.36052771     -0.36048350     -0.36032355
      -0.36015743     -0.36004289     -0.35983712     -0.35977216
      -0.35887131     -0.35843816     -0.35822896     -0.35808397
      -0.35746961     -0.35715771     -0.35705382     -0.35695870
      -0.35667922     -0.35632553     -0.35613954     -0.35602045
      -0.35589913     -0.35580035     -0.35573055     -0.35565941
      -0.35556038     -0.35554479     -0.35545645     -0.35542836
      -0.35537500     -0.35529803     -0.35521813     -0.35500789
      -0.35490170     -0.35465258     -0.35445433     -0.35325019
      -0.35317276     -0.35313287     -0.35289574     -0.35212632
      -0.35156756     -0.35133811     -0.35125638     -0.33452928
       0.02469071      0.02554015      0.02635509      0.02716512
       0.02749929      0.02753362      0.02774459      0.02821718
       0.02883024      0.02891625      0.02919846      0.02943665
       0.02956003      0.02965275      0.02975771      0.02985373
       0.03004538      0.03034533      0.03051929      0.03074491
       0.03088910      0.03090937      0.03104532      0.03108070
       0.03134989      0.03138068      0.03143533      0.03160818
       0.03170559      0.03177721      0.03182538      0.03190934
       0.03210384      0.03213581      0.03223778      0.03233083
       0.03237236      0.03248553      0.03259120      0.03283093
       0.03289835      0.03309145      0.03329077      0.03339859
       0.03603686      0.03640687      0.03660579      0.03673934
       0.03817695      0.03841032      0.03857384      0.03895660
       0.03920005      0.03950816      0.03978352      0.04014733
       0.04041702      0.04056633      0.04063903      0.04069015
       0.04091330      0.04111783      0.04158088      0.04177072
       0.04234099      0.04260349      0.04293848      0.04325875
       0.04450879      0.04567432      0.04599202      0.04632519
       0.04813303      0.04944807      0.04971576      0.05021356
       0.05048161      0.05059636      0.05100923      0.05151207
       0.05158679      0.05207345      0.05259681      0.05265094
       0.05291832      0.05345202      0.05397402      0.05475434
       0.05484010      0.05501348      0.05546390      0.05604415
       0.05620781      0.05647615      0.05703982      0.05757342
       0.05781160      0.05823696      0.05839953      0.05880307
       0.05907752      0.05934789      0.05942696      0.05956750
       0.05983545      0.05992688      0.06022664      0.06077558
       0.06121364      0.06141938      0.06161899      0.06282585
       0.06353817      0.06439723      0.06457018      0.06472914
       0.06478598      0.06495583      0.06512375      0.06531337
       0.06544762      0.06550857      0.06561991      0.06589402
       0.06602868      0.06604921      0.06649045      0.06667000
       0.07158987      0.07187503      0.07208729      0.07268628
       0.07379307      0.07474677      0.07492661      0.07521558
       0.07547271      0.07573781      0.07614310      0.07651395
       0.07669548      0.07701219      0.07772229      0.07792786
       0.07801062      0.07825436      0.07858151      0.07867498
       0.07880670      0.07887564      0.07903538      0.08013915
       0.08447955      0.08467446      0.08520757      0.08543390
       0.08554774      0.08557310      0.08565732      0.08595896
       0.08621753      0.08659814      0.08668067      0.08827602
       0.09096806      0.09129380      0.09204072      0.09231486
       0.09272943      0.09283164      0.09344943      0.09372695
       0.09549789      0.09556679      0.09605808      0.09628761
       0.09700611      0.09720819      0.09738059      0.09752996
       0.09782513      0.09785956      0.09815090      0.09828710
       0.09837715      0.09862865      0.09875348      0.09878667
       0.09887101      0.09917208      0.09961645      0.09971452
       0.10013013      0.10114263      0.10125631      0.10133470
       0.10201587      0.10225503      0.10264434      0.10282649
       0.10312188      0.10335589      0.10355612      0.10456235
       0.10471756      0.10573646      0.10603939      0.10633415
       0.10660745      0.10667444      0.10688539      0.10695655
       0.10699465      0.10734724      0.10743537      0.10757032
       0.10783212      0.10795591      0.10821308      0.10880372
       0.10903951      0.10942963      0.10966807      0.11001969
       0.11007477      0.11012069      0.11032456      0.11036929
       0.11055598      0.11061158      0.11089785      0.11133822
       0.11139560      0.11159158      0.11213667      0.11226400
       0.11246224      0.11269030      0.11312802      0.11326908
       0.11334300      0.11352356      0.11393703      0.11399886
       0.11509763      0.11541639      0.11586308      0.11655785
       0.11681782      0.11751278      0.11818980      0.11829609
       0.11867345      0.11966036      0.11986340      0.12037573
       0.12201279      0.12326213      0.12351763      0.12370862
       0.12385596      0.13106049      0.13198353      0.13237453
       0.13263142      0.13291396      0.13345309      0.13359139
       0.13526207      0.13603332      0.13687651      0.13746368
       0.13839041      0.13862479      0.13876073      0.13894588
       0.13939902      0.13965387      0.13980184      0.14067336
       0.14112458      0.14155684      0.14179418      0.14198487
       0.14232417      0.14245499      0.14274883      0.14279382
       0.14295591      0.14308491      0.14338810      0.14383980
       0.14459938      0.14490885      0.14498336      0.14549065
       0.14633525      0.14727343      0.14751479      0.14789376
       0.14799442      0.14824707      0.14838714      0.14840047
       0.14893653      0.14982935      0.15003536      0.15084392
       0.15120582      0.15150106      0.15163895      0.15200675
       0.15247442      0.15269460      0.15343226      0.15351628
       0.15529502      0.15548454      0.15577091      0.15802201
       0.15824169      0.15881532      0.15890389      0.15906931
       0.15908641      0.15941171      0.15965008      0.15987072
       0.16002542      0.16056653      0.16065738      0.16077005
       0.16100995      0.16129982      0.16210543      0.16216450
       0.16235108      0.16251135      0.16277607      0.16284085
       0.16358553      0.16368291      0.16374765      0.16391463
       0.16462593      0.16472215      0.16491754      0.16519780
       0.16532129      0.16565902      0.16596533      0.16608875
       0.16621798      0.16641854      0.16662583      0.16667739
       0.16687153      0.16735529      0.16798593      0.16847730
       0.16866308      0.16911810      0.16939821      0.16956923
       0.16996810      0.17138663      0.17252768      0.17263592
       0.17311330      0.17332538      0.17343879      0.17350095
       0.17367681      0.17389247      0.17438507      0.17479006
       0.17602960      0.17852426      0.17972292      0.17987685
       0.18000902      0.18098246      0.18108584
 Fermi Energy [eV] :    4.927596
  
  Lowest Eigenvalues of the unoccupied subspace spin            1
 -----------------------------------------------------
 OT| Eigensolver reached convergence in 65 iterations
       0.26665460
  
  Lowest Eigenvalues of the unoccupied subspace spin            2
 -----------------------------------------------------
 OT| Eigensolver reached convergence in 67 iterations
       0.26649630
  
 HOMO - LUMO gap [eV] :    2.359245
 HOMO - LUMO gap [eV] :    2.324137

 ENERGY| Total FORCE_EVAL ( QS ) energy [a.u.]:            -5774.163066879411417

 OPT| **************************************************************************
 OPT| Step number                                                             23
 OPT| Optimization method                                                   BFGS
 OPT| Total energy [hartree]                                    -5774.1630668794
 OPT| Effective energy change [hartree]                             0.0178501354
 OPT| Predicted energy change [hartree]                            -0.0374020204
 OPT| Scaling factor                                                0.5788508805
 OPT| Step size                                                     0.4724315332
 OPT| Trust radius                                                  0.4724315332
 OPT| Decrease in energy                                                      NO
 OPT| Used time [s]                                                       80.731
 OPT|
 OPT| Maximum step size                                             0.4724315332
 OPT| Convergence limit for maximum step size                       0.0030000000
 OPT| Maximum step size is converged                                          NO
 OPT|
 OPT| RMS step size                                                 0.1012927842
 OPT| Convergence limit for RMS step size                           0.0015000000
 OPT| RMS step size is converged                                              NO
 OPT|
 OPT| Maximum gradient                                              0.0125006571
 OPT| Convergence limit for maximum gradient                        0.0004500000
 OPT| Maximum gradient is converged                                           NO
 OPT|
 OPT| RMS gradient                                                  0.0032448972
 OPT| Convergence limit for RMS gradient                            0.0003000000
 OPT| RMS gradient is converged                                               NO
 OPT| **************************************************************************
 OPT| Estimated peak process memory after this step [MiB]                    360

 --------------------------
 OPTIMIZATION STEP:     24
 --------------------------

 Spin 1

 Number of electrons:                                                        768
 Number of occupied orbitals:                                                768
 Number of molecular orbitals:                                               768

 Spin 2

 Number of electrons:                                                        767
 Number of occupied orbitals:                                                767
 Number of molecular orbitals:                                               767

 Number of orbital functions:                                               3328
 Number of independent orbital functions:                                   3328

 Parameters for the always stable predictor-corrector (ASPC) method:

  ASPC order: 3

  B(1) =   3.000000
  B(2) =  -3.428571
  B(3) =   1.928571
  B(4) =  -0.571429
  B(5) =   0.071429

 Parameters for the always stable predictor-corrector (ASPC) method:

  ASPC order: 3

  B(1) =   3.000000
  B(2) =  -3.428571
  B(3) =   1.928571
  B(4) =  -0.571429
  B(5) =   0.071429

 Extrapolation method: ASPC


 SCF WAVEFUNCTION OPTIMIZATION

  ----------------------------------- OT ---------------------------------------
  Minimizer      : DIIS                : direct inversion
                                         in the iterative subspace
                                         using   7 DIIS vectors
                                         safer DIIS on
  Preconditioner : FULL_SINGLE_INVERSE : inversion of 
                                         H + eS - 2*(Sc)(c^T*H*c+const)(Sc)^T
  Precond_solver : DEFAULT
  stepsize       :    0.08000000                  energy_gap     :    0.08000000
  eps_taylor     :   0.10000E-15                  max_taylor     :             4
  ----------------------------------- OT ---------------------------------------

  Step     Update method      Time    Convergence         Total energy    Change
  ------------------------------------------------------------------------------
     1 OT DIIS     0.80E-01    1.5     0.00096711     -5773.0473758126 -5.77E+03
     2 OT DIIS     0.80E-01    1.4     0.00068423     -5773.3614804664 -3.14E-01
     3 OT DIIS     0.80E-01    1.5     0.00050558     -5773.6393547311 -2.78E-01
     4 OT DIIS     0.80E-01    1.5     0.00032758     -5773.9018836278 -2.63E-01
     5 OT DIIS     0.80E-01    1.5     0.00019548     -5774.0484739725 -1.47E-01
     6 OT DIIS     0.80E-01    1.5     0.00012558     -5774.0924141934 -4.39E-02
     7 OT DIIS     0.80E-01    1.5     0.00009837     -5774.1098072791 -1.74E-02
     8 OT DIIS     0.80E-01    1.5     0.00007415     -5774.1235674888 -1.38E-02
     9 OT DIIS     0.80E-01    1.6     0.00006238     -5774.1308833522 -7.32E-03
    10 OT DIIS     0.80E-01    1.5     0.00005490     -5774.1370226609 -6.14E-03
    11 OT DIIS     0.80E-01    1.5     0.00005265     -5774.1400116088 -2.99E-03
    12 OT DIIS     0.80E-01    1.5     0.00005042     -5774.1449279215 -4.92E-03
    13 OT DIIS     0.80E-01    1.5     0.00004967     -5774.1477934246 -2.87E-03
    14 OT DIIS     0.80E-01    1.5     0.00004862     -5774.1521120043 -4.32E-03
    15 OT DIIS     0.80E-01    1.5     0.00004697     -5774.1575170322 -5.41E-03
    16 OT DIIS     0.80E-01    1.5     0.00004244     -5774.1658682770 -8.35E-03
    17 OT DIIS     0.80E-01    1.5     0.00003710     -5774.1718381943 -5.97E-03
    18 OT SD       0.80E-01    1.5     0.00003027     -5774.1779829876 -6.14E-03
    19 OT SD       0.80E-01    1.5     0.00002615     -5774.1783248328 -3.42E-04
    20 OT DIIS     0.80E-01    1.5     0.00002437     -5774.1785935113 -2.69E-04
    21 OT DIIS     0.80E-01    1.5     0.00002358     -5774.1796469218 -1.05E-03
    22 OT DIIS     0.80E-01    1.5     0.00001788     -5774.1812030832 -1.56E-03
    23 OT DIIS     0.80E-01    1.5     0.00001873     -5774.1809789095  2.24E-04
    24 OT DIIS     0.80E-01    1.5     0.00001609     -5774.1813681512 -3.89E-04
    25 OT DIIS     0.80E-01    1.5     0.00001276     -5774.1820011487 -6.33E-04
    26 OT DIIS     0.80E-01    1.5     0.00001121     -5774.1824733260 -4.72E-04
    27 OT DIIS     0.80E-01    1.5     0.00001006     -5774.1828098109 -3.36E-04
    28 OT DIIS     0.80E-01    1.5     0.00000856     -5774.1832263784 -4.17E-04
    29 OT DIIS     0.80E-01    1.5     0.00000750     -5774.1834840133 -2.58E-04
    30 OT DIIS     0.80E-01    1.5     0.00000666     -5774.1836844357 -2.00E-04
    31 OT DIIS     0.80E-01    1.5     0.00000602     -5774.1838290992 -1.45E-04
    32 OT DIIS     0.80E-01    1.5     0.00000567     -5774.1839114527 -8.24E-05
    33 OT DIIS     0.80E-01    1.5     0.00000511     -5774.1840143507 -1.03E-04
    34 OT DIIS     0.80E-01    1.5     0.00000446     -5774.1841290769 -1.15E-04
    35 OT DIIS     0.80E-01    1.5     0.00000391     -5774.1842220533 -9.30E-05
    36 OT DIIS     0.80E-01    1.5     0.00000355     -5774.1842758673 -5.38E-05
    37 OT DIIS     0.80E-01    1.5     0.00000316     -5774.1843244562 -4.86E-05
    38 OT DIIS     0.80E-01    1.5     0.00000289     -5774.1843563333 -3.19E-05
    39 OT DIIS     0.80E-01    1.5     0.00000263     -5774.1843845800 -2.82E-05
    40 OT DIIS     0.80E-01    1.5     0.00000247     -5774.1844008068 -1.62E-05

  Leaving inner SCF loop after reaching    40 steps.


  Electronic density on regular grids:      -1534.9999999999        0.0000000001
  Core density on regular grids:             1535.9999999995       -0.0000000005
  Total charge density on r-space grids:        0.9999999996
  Total charge density g-space grids:           0.9999999996

  Overlap energy of the core charge distribution:               0.00000000000390
  Self energy of the core charge distribution:             -12156.89556134359555
  Core Hamiltonian energy:                                   3287.56374166062824
  Hartree energy:                                            4007.75293391563082
  Exchange-correlation energy:                               -926.92493119403935

  DFT+U energy:                                                14.31941615455558

  Total energy:                                             -5774.18440080681739

  outer SCF iter =    1 RMS gradient =   0.25E-05 energy =      -5774.1844008068

  ----------------------------------- OT ---------------------------------------
  Minimizer      : DIIS                : direct inversion
                                         in the iterative subspace
                                         using   7 DIIS vectors
                                         safer DIIS on
  Preconditioner : FULL_SINGLE_INVERSE : inversion of 
                                         H + eS - 2*(Sc)(c^T*H*c+const)(Sc)^T
  Precond_solver : DEFAULT
  stepsize       :    0.08000000                  energy_gap     :    0.08000000
  eps_taylor     :   0.10000E-15                  max_taylor     :             4
  ----------------------------------- OT ---------------------------------------

  Step     Update method      Time    Convergence         Total energy    Change
  ------------------------------------------------------------------------------
     1 OT DIIS     0.80E-01    3.5     0.00000341     -5774.1844175115 -1.67E-05
     2 OT DIIS     0.80E-01    1.3     0.00000321     -5774.1844221109 -4.60E-06
     3 OT DIIS     0.80E-01    1.3     0.00000280     -5774.1844362491 -1.41E-05
     4 OT DIIS     0.80E-01    1.3     0.00000240     -5774.1844537330 -1.75E-05
     5 OT DIIS     0.80E-01    1.4     0.00000217     -5774.1844689352 -1.52E-05
     6 OT DIIS     0.80E-01    1.4     0.00000197     -5774.1844808236 -1.19E-05
