     192
 i =        7, E =     -5774.1707861497
Ti         0.0028744516        0.0220897239       -0.0055240609
Ti         1.8896216835        1.8897091502        4.8069333050
Ti         0.0020473862        1.8886878026        2.4049712712
Ti         1.8912164538        0.0043148997        7.2117006412
Ti         0.0023837951        3.7782690695       -0.0002380921
Ti         1.8935703213       13.2399365497        4.8065864449
Ti        11.3492728935        1.8895620000        2.4067120884
Ti         5.6686202065        0.0020641066        7.2164789290
Ti         1.8896766181        3.7761091135        7.2107118854
Ti         0.0051226898       13.2421732621        2.4162833851
Ti         5.6687691094        1.8884891766        4.8032669272
Ti        11.3465315747        0.0179307725       -0.0061140877
Ti         3.7796337418        0.0029061140       -0.0017416790
Ti        13.2374149293        1.8916866518        4.8068931128
Ti        13.2372778052        0.0130833756        7.2108033244
Ti         3.7772124814        1.8891219450        2.4049503683
Ti         1.8897972062        5.6670679722        4.8115399032
Ti         0.0652448429       11.3430403828        0.0173276136
Ti         0.0031770077        5.6664282703        2.3998231286
Ti         1.8876110526       11.3503087850        7.2037689877
Ti         0.0087178945        7.5563699733        0.0042906806
Ti         1.8936319250        9.4604381924        4.8097295617
Ti         7.5691156984        1.8888287881        2.4084340624
Ti         9.4598972565        0.0046247285        7.2137967068
Ti         1.8907815387        7.5667017855        7.2057311736
Ti         0.0109387207        9.4589690754        2.4079629894
Ti         9.4613033181        1.8889811672        4.8057103757
Ti         7.5680372852        0.0030097298       -0.0056040356
Ti         3.7768588062        3.7760860238       -0.0001012431
Ti        13.2367947955       13.2482028527        4.8049154437
Ti        11.3496234241        5.6688885394        2.4046258159
Ti         5.6682397209       11.3509166194        7.2118375021
Ti        13.2380991722        3.7748434945        7.2106445242
Ti         3.7804177663       13.2393463681        2.4056571427
Ti         5.6680215746        5.6676442020        4.8078735053
Ti        11.2924913613       11.3822150863        0.0079275171
Ti        11.3445629682       13.2404293481        2.4123211768
Ti         5.6683863062        3.7757153726        7.2144852059
Ti         3.7953569231       11.3504544596        0.0058256016
Ti        13.2386416481        5.6635513233        4.8116187434
Ti         5.6689493012       13.2385603175        4.8028662475
Ti        11.3496385804        3.7655456249       -0.0039187747
Ti        13.2381677902       11.3518864019        7.1614161689
Ti         3.7768857757        5.6673581366        2.4003141230
Ti         3.7777672589        7.5681281397        0.0049334315
Ti        13.2418570153        9.4538432903        4.8089405549
Ti         7.5680796664        5.6666904391        2.4040949841
Ti         9.4619463368       11.3531471216        7.2044455586
Ti        13.2397125017        7.5570406825        7.2014591255
Ti         3.7795229292        9.4612183403        2.4021757606
Ti         9.4605263249        5.6655483142        4.8104300567
Ti         7.5497041621       11.3520966416        0.0022295782
Ti        11.3468732858        9.4600547712        2.4329997225
Ti         5.6681948654        7.5689882499        7.2095373899
Ti         5.6671382634        9.4623191588        4.8061924891
Ti        11.3497175565        7.5253319194       -0.0073285946
Ti         9.4608930427        3.7744969842        7.2117978441
Ti         7.5664806054       13.2398479103        2.4090460617
Ti         7.5687716832        3.7749316867       -0.0036781697
Ti         9.4580286557       13.2410689118        4.8052274161
Ti         7.5621835175        7.5679339866        0.0023364316
Ti         9.4540426339        9.4613473771        4.8095627486
Ti         7.5619212187        9.4616962616        2.4062167430
Ti         9.4584409338        7.5659860694        7.2036929154
O        -0.0009819575       -0.0039397930        1.9768149534
O         1.8822601826        1.8873220592        6.7929513040
O         0.0009445267        1.8823187544        4.3905042517
O         1.8854054922       -0.0101860869        9.1986291026
O         1.8817189596        0.0010421090        5.2258093236
O        -0.0014191510        1.8937810188        0.4218419681
O         1.8864640485        1.8823009169        2.8210402500
O         0.0005885851       -0.0079409221        7.6287230397
O        -0.0011158021        3.7752668530        1.9799752619
O         1.8765881820       13.2358024855        6.7959467198
O        11.3516674913        1.8828978226        4.3900019508
O         5.6727159815       -0.0014205955        9.1973653225
O         1.8829643428        3.7759446913        5.2297752802
O        -0.0329421103       13.2322599719        0.4057679564
O         5.6723678249        1.8838699154        2.8204445264
O        11.3526099242       -0.0062919978        7.6280757005
O         3.7748728802       -0.0016185024        7.6345512713
O        13.2368265652        1.8814185875        2.8199797605
O        13.2371853001       -0.0155138375        9.1990610736
O         3.7754315882        1.8836793384        4.3858177862
O         1.8820452531        5.6725906376        6.7944646774
O        -0.0126856919       11.3528627723        1.9862419885
O        -0.0034637744        5.6710457542        0.4191524256
O         1.8788842905       11.3510734655        5.2225286461
O        -0.0040517705        7.5702870469        1.9829803659
O         1.8763532585        9.4635477425        6.7925941790
O         7.5673300579        1.8838965071        4.3908162193
O         9.4632869732       -0.0046911319        9.1938337579
O         1.8814466279        7.5673906250        5.2242682278
O        -0.0329941483        9.4614437593        0.4152752550
O         9.4636854476        1.8833965504        2.8242529287
O         7.5671653578       -0.0018455549        7.6287351255
O         3.7668028280        0.0011201045        1.9860023004
O        13.2377987520        1.8900068530        6.7907139624
O         0.0010676735        5.6587811265        4.3899306172
O         1.9145114085       11.3550500411        9.1876703469
O        13.2378580022        0.0037285433        5.2283213134
O         3.7672343242        1.8869949419        0.4174205563
O         1.8867039492        5.6582827035        2.8212484004
O        -0.0167939774       11.3553520593        7.6537506465
O        11.3560189059        1.8880604337        0.4234603921
O         5.6557185545        0.0007942290        5.2252715496
O         5.6558019580        1.8869201828        6.7934977699
O        11.3563767516       -0.0021781595        1.9813952138
O         1.8867273796        3.7696999615        9.1978633229
O         0.0010503040       13.2334670427        4.3955268751
O         0.0012304976        3.7700359164        7.6275380360
O         1.8875705799       13.2344128394        2.8203608286
O         3.7684807399        3.7757781128        1.9824586623
O        13.2377463019       13.2383762531        6.8012672036
O        11.3517294559        5.6601360055        4.3917211303
O         5.6721858484       11.3530155651        9.1905013617
O        13.2373361001        3.7758028863        5.2318457534
O         3.7644403423       13.2364786108        0.4163828863
O         5.6721629852        5.6575328690        2.8202213265
O        11.3683687867       11.3463956723        7.6493111269
O        11.3797821927       13.2492552953        0.4174407473
O         5.6561481303        3.7758266400        5.2288196345
O         3.7712958502       11.3534883255        7.6363747137
O        13.2365871252        5.6620855721        2.8193144013
O         5.6558492144       13.2361836354        6.7946733025
O        11.3548274217        3.7783757327        1.9794709618
O        13.2358517516       11.3401650735        9.2282344468
O         3.7753453682        5.6574159836        4.3858819383
O         5.6565856239        5.6728992143        6.7954345672
O        11.3656608234       11.3420986912        1.9782186759
O        13.2368980875        3.7710612300        9.1987761992
O         3.7763178764       13.2359203210        4.3841998732
O        11.3554456294        5.6551724401        0.4232445759
O         5.6563007845       11.3511152645        5.2248149064
O         3.7754826682        3.7698422336        7.6324343289
O        13.2357589326       13.2289733688        2.8155969967
O        13.2369428310       11.3511230115        5.1973346815
O         3.7680855461        5.6727061893        0.4160143935
O         5.6727366884       13.2358708052        2.8220300121
O        11.3515633806        3.7711062630        7.6262077972
O         3.7657665073       11.3512303316        1.9898309060
O        13.2364777815        5.6694071347        6.7933232215
O        11.3513029551       13.2323547704        4.3918968580
O         5.6722418371        3.7702140607        9.1989599558
O         3.7676169558        7.5672157555        1.9881804443
O        13.2357030094        9.4610206040        6.8001033655
O         7.5671647294        5.6579005339        4.3909792001
O         9.4378676993       11.3430477209        9.1869870200
O        13.2362308683        7.5650102511        5.2246239413
O         3.7657023388        9.4630366531        0.4194122538
O         9.4639428680        5.6608751501        2.8233239856
O         7.5712472463       11.3526127600        7.6318352340
O        11.3850509630        9.4678866424        0.3981441276
O         5.6566792184        7.5675938679        5.2230236172
O         5.6569210801        9.4633692954        6.7918812007
O        11.3543821135        7.5794784451        1.9698154663
O         9.4634654524        3.7715985034        9.1950143158
O         7.5669328164       13.2355172088        4.3893253974
O         7.5670863109        3.7705322649        7.6275625482
O         9.4624218536       13.2321530113        2.8242545084
O         7.5851984055        0.0011457978        1.9855608720
O         9.4714939367        1.8871380750        6.7928220458
O         0.0023014340        9.4727458157        4.3918148166
O         1.8873481981        7.5889406815        9.1967035085
O         9.4719791528        0.0011294708        5.2260889650
O         7.5846778954        1.8870026835        0.4182634669
O         1.8892940749        9.4723902811        2.8212172427
O        -0.0009409507        7.5899279551        7.6308256987
O         7.5844739683        3.7760428132        1.9818684759
O         9.4768969950       13.2364628933        6.7957360285
O        11.3515760533        9.4720508116        4.4069920880
O         5.6707939028        7.5850698183        9.1969062324
O         9.4709464217        3.7755626142        5.2294557804
O         7.5874539855       13.2365093878        0.4170068505
O         5.6708438624        9.4701044883        2.8221213908
O        11.3523764426        7.5946450725        7.6276415220
O         3.7752090495        7.5851769696        7.6339875098
O        13.2385666563        9.4746709910        2.8117230094
O        13.2357814126        7.6104668284        9.2022789009
O         3.7756868690        9.4703500963        4.3843917010
O         9.4722317692        5.6723574408        6.7954946328
O         7.5882371167       11.3506534945        1.9890975757
O         7.5874087798        5.6731667603        0.4157146504
O         9.4752730233       11.3510956500        5.2219139864
O         7.5878652288        7.5675763508        1.9877856527
O         9.4786612358        9.4638972915        6.7949896874
O         7.5654409217        9.4700904162        4.3889857853
O         9.4667246622        7.6047170466        9.1990175445
O         9.4730605723        7.5675043346        5.2221163687
O         7.5916648740        9.4630044872        0.4194879414
O         9.4619642905        9.4709953691        2.8201692092
O         7.5689610250        7.5850879910        7.6311497604
     192
 i =        8, E =     -5774.1790785228
Ti         0.0007444882        0.0184272607       -0.0071244149
Ti         1.8900420777        1.8896915264        4.8075044556
Ti         0.0029920622        1.8914736916        2.4040436342
Ti         1.8913845857        0.0031714260        7.2121916684
Ti         0.0024300227        3.7762651937        0.0023756711
Ti         1.8942665663       13.2412061970        4.8054287587
Ti        11.3495361009        1.8907009711        2.4093751716
Ti         5.6688255106        0.0030813647        7.2169499561
Ti         1.8898245262        3.7756369574        7.2098997942
Ti         0.0015661372       13.2458849403        2.4159198609
Ti         5.6687798195        1.8886696032        4.8030862169
Ti        11.3490587870        0.0135307148       -0.0036902736
Ti         3.7781282600        0.0025423315       -0.0019949507
Ti        13.2377290433        1.8932530591        4.8067938982
Ti        13.2368657859        0.0116405642        7.2096325566
Ti         3.7770614989        1.8891716289        2.4050004572
Ti         1.8902226470        5.6668709227        4.8118631072
Ti         0.1204058932       11.3462966187        0.0377069931
Ti         0.0028531783        5.6666188148        2.3998531419
Ti         1.8929268460       11.3519556996        7.2003381159
Ti         0.0046240022        7.5596357960        0.0043405866
Ti         1.8954483579        9.4595143197        4.8091191916
Ti         7.5686587660        1.8890225635        2.4084333537
Ti         9.4593725677        0.0035944130        7.2129327250
Ti         1.8916018347        7.5674607508        7.2059300402
Ti         0.0047955618        9.4538285998        2.4115751612
Ti         9.4604957632        1.8892556625        4.8062520365
Ti         7.5687917081        0.0028607748       -0.0059951529
Ti         3.7768563338        3.7759325682       -0.0000378506
Ti        13.2366281324       13.2549130961        4.8000901456
Ti        11.3492510166        5.6656983048        2.4035031050
Ti         5.6690311045       11.3512682274        7.2058092847
Ti        13.2380046426        3.7749277652        7.2092200995
Ti         3.7778884256       13.2401044738        2.4077458495
Ti         5.6684546893        5.6676693767        4.8075934861
Ti        11.2416921197       11.3853189510        0.0223944257
Ti        11.3490295703       13.2492050248        2.4146127875
Ti         5.6685728644        3.7759531311        7.2143658986
Ti         3.8051018460       11.3512205751        0.0039203651
Ti        13.2383282660        5.6611971253        4.8118723596
Ti         5.6690528321       13.2393236322        4.8020577752
Ti        11.3497396446        3.7647786067       -0.0001635404
Ti        13.2374428410       11.3500912086        7.1301762085
Ti         3.7772121888        5.6672782974        2.4006237805
Ti         3.7771785225        7.5683164052        0.0035937656
Ti        13.2426530169        9.4467817663        4.8064391082
Ti         7.5689142418        5.6670602378        2.4040368591
Ti         9.4558092208       11.3509182991        7.2007512186
Ti        13.2409672536        7.5590817455        7.1993440281
Ti         3.7780760813        9.4605291745        2.4042434755
Ti         9.4598972135        5.6660035536        4.8114963460
Ti         7.5427152382       11.3514215083        0.0001649872
Ti        11.3504140684        9.4596219688        2.4363565544
Ti         5.6684362596        7.5682566336        7.2105994534
Ti         5.6670000870        9.4615651086        4.8057751356
Ti        11.3524284267        7.5131849374       -0.0141739276
Ti         9.4604837585        3.7760682171        7.2103049899
Ti         7.5681511634       13.2403116617        2.4110096290
Ti         7.5691294613        3.7759912813       -0.0034803805
Ti         9.4567521107       13.2418644202        4.8045707298
Ti         7.5652877072        7.5697655289        0.0018600409
Ti         9.4516901396        9.4604888398        4.8107344892
Ti         7.5660110957        9.4611969786        2.4081502033
Ti         9.4576885124        7.5692946263        7.2044698794
O         0.0049617127       -0.0032928755        1.9740682867
O         1.8840868703        1.8850582424        6.7945324619
O         0.0006146385        1.8847325299        4.3883515680
O         1.8810345790       -0.0016891094        9.1998619256
O         1.8860902785       -0.0001774903        5.2268794247
O        -0.0013238128        1.8852123621        0.4167248253
O         1.8852211218        1.8842818304        2.8217947948
O        -0.0008633762        0.0066822734        7.6293880698
O         0.0011803328        3.7774325424        1.9827245598
O         1.8814151193       13.2326841780        6.7935486287
O        11.3524076768        1.8848747173        4.3905012653
O         5.6723033155       -0.0003926154        9.1991125794
O         1.8847688004        3.7760170845        5.2289588757
O        -0.0554110295       13.2188936809        0.3990907199
O         5.6721772295        1.8843567545        2.8202058395
O        11.3534880791        0.0052572025        7.6312547080
O         3.7738671481        0.0010281664        7.6341814910
O        13.2375247746        1.8840362862        2.8212361392
O        13.2366749376        0.0063765269        9.1947575099
O         3.7748235056        1.8848225170        4.3856856550
O         1.8839709003        5.6744894185        6.7956719862
O         0.0123678931       11.3504884249        1.9903551820
O        -0.0008940603        5.6754761030        0.4149015213
O         1.8839258734       11.3511166139        5.2249648721
O         0.0080970051        7.5723144320        1.9812316424
O         1.8797392512        9.4676500050        6.7920181591
O         7.5679202854        1.8844357193        4.3906494681
O         9.4679271176        0.0001821303        9.1940245686
O         1.8856403956        7.5691317599        5.2253773136
O        -0.0451423068        9.4768582265        0.4088999615
O         9.4647216366        1.8843284938        2.8249784117
O         7.5685087947        0.0007017485        7.6281119063
O         3.7708869297        0.0002984517        1.9855986441
O        13.2376087081        1.8862985646        6.7943494095
O         0.0001617807        5.6572509669        4.3890607517
O         1.9239977698       11.3496437042        9.1875675299
O        13.2372401080        0.0031885905        5.2284727308
O         3.7688028639        1.8857376581        0.4166849998
O         1.8850604106        5.6580562463        2.8209278229
O        -0.0261840775       11.3538032477        7.6828070168
O        11.3550122591        1.8836469257        0.4204459843
O         5.6560006448        0.0003350474        5.2258007456
O         5.6559904278        1.8866678975        6.7937519236
O        11.3491322874        0.0007262544        1.9832424426
O         1.8850823095        3.7704699035        9.1972875221
O        -0.0005447473       13.2402043823        4.3890838947
O         0.0004917662        3.7697837710        7.6305830064
O         1.8806808835       13.2361702857        2.8188305229
O         3.7693595216        3.7759277219        1.9826611241
O        13.2360675171       13.2282456145        6.8000562844
O        11.3522651132        5.6589220051        4.3883705129
O         5.6732775407       11.3535754904        9.1887175759
O        13.2379794141        3.7759662712        5.2299678556
O         3.7742011586       13.2342491768        0.4190903409
O         5.6729309363        5.6572812622        2.8193269128
O        11.3765127875       11.3595243352        7.6734507689
O        11.3788873274       13.2332469745        0.4116166295
O         5.6560767489        3.7760521908        5.2285623738
O         3.7739717581       11.3533569591        7.6310067940
O        13.2350285424        5.6629088259        2.8208322616
O         5.6557927722       13.2359136402        6.7938156434
O        11.3533372238        3.7764015787        1.9839503517
O        13.2316304259       11.3379634242        9.2683921257
O         3.7749309172        5.6570178754        4.3863426395
O         5.6561995337        5.6738719636        6.7951173667
O        11.3444754158       11.3453144776        1.9783454778
O        13.2362337291        3.7682644684        9.1961186124
O         3.7749987737       13.2376048225        4.3860768839
O        11.3559149871        5.6615544361        0.4166039657
O         5.6557456439       11.3510534686        5.2233684451
O         3.7748845728        3.7698051295        7.6324658010
O        13.2362895116       13.2398569755        2.8201022404
O        13.2392473243       11.3507598564        5.2026927864
O         3.7686312095        5.6741115653        0.4158832883
O         5.6723985613       13.2370812927        2.8190477300
O        11.3522287571        3.7675834528        7.6307795472
O         3.7727218525       11.3511030043        1.9856185840
O        13.2379477541        5.6739448672        6.7971002580
O        11.3526422255       13.2393235771        4.3901002922
O         5.6725647053        3.7696678178        9.1992264267
O         3.7696024787        7.5685340282        1.9863316908
O        13.2423351419        9.4688857114        6.7976418865
O         7.5683182597        5.6564818589        4.3908998680
O         9.4272152914       11.3595655260        9.1840891843
O        13.2396276602        7.5648039577        5.2259069607
O         3.7719414654        9.4652720719        0.4218242300
O         9.4664600169        5.6607690916        2.8247410496
O         7.5696248094       11.3556017597        7.6259712399
O        11.4037207220        9.4807550463        0.3761233590
O         5.6559671335        7.5686436213        5.2246391621
O         5.6560803598        9.4635486679        6.7911486358
O        11.3485584822        7.5833695400        1.9590566950
O         9.4656464432        3.7674266720        9.1932575392
O         7.5681618532       13.2383673995        4.3912121007
O         7.5680146157        3.7689754949        7.6278024885
O         9.4692962954       13.2355439629        2.8222700180
O         7.5831881879        0.0002106565        1.9854051413
O         9.4700599929        1.8861278615        6.7952187574
O         0.0009968829        9.4677594561        4.3909898963
O         1.8812063603        7.5871007186        9.2000212086
O         9.4684668411       -0.0001928692        5.2255307579
O         7.5839714623        1.8865115889        0.4170218657
O         1.8811495865        9.4705751958        2.8174489243
O        -0.0016807197        7.5787351728        7.6319250867
O         7.5830089231        3.7765355977        1.9823925279
O         9.4739627746       13.2312480358        6.7959967720
O        11.3533661141        9.4682360986        4.3930429011
O         5.6728537122        7.5849541834        9.2004920317
O         9.4691406243        3.7762893862        5.2278691898
O         7.5811547904       13.2338822878        0.4186812000
O         5.6724454917        9.4699743448        2.8183453346
O        11.3546507950        7.5720303390        7.6272319904
O         3.7742159225        7.5833543848        7.6323458274
O        13.2347380239        9.4651143473        2.8182640797
O        13.2325111156        7.5847434885        9.1998884945
O         3.7747348886        9.4691871513        4.3865298344
O         9.4701815820        5.6768641859        6.7974556124
O         7.5788032022       11.3507612901        1.9854708410
O         7.5845853403        5.6761211716        0.4149166626
O         9.4692267670       11.3509448969        5.2240778763
O         7.5800457616        7.5690482326        1.9866804950
O         9.4705859888        9.4667293555        6.7918679966
O         7.5665118823        9.4696241806        4.3912241151
O         9.4749390681        7.5905674225        9.2020447598
O         9.4670837678        7.5695741145        5.2250819697
O         7.5750174934        9.4651288425        0.4228466096
O         9.4712480785        9.4709918508        2.8214337078
O         7.5708752141        7.5813839811        7.6303671501
     192
 i =        9, E =     -5774.1821941230
Ti        -0.0003432565        0.0171111059       -0.0090704158
Ti         1.8910808884        1.8904535117        4.8070924215
Ti         0.0043563679        1.8913762229        2.4041562578
Ti         1.8918707093        0.0063370877        7.2131498011
Ti         0.0036255572        3.7780435168       -0.0003249004
Ti         1.8948641361       13.2432434870        4.8044927704
Ti        11.3483463257        1.8908979159        2.4114792348
Ti         5.6692890583        0.0047052912        7.2167781188
Ti         1.8903228121        3.7768031810        7.2116287088
Ti         0.0013655546       13.2484204965        2.4165740873
Ti         5.6687967321        1.8897307577        4.8030187288
Ti        11.3489887797        0.0125082013       -0.0052695770
Ti         3.7792321699        0.0047664703       -0.0011101039
Ti        13.2382665211        1.8953121117        4.8047478581
Ti        13.2364129649        0.0167752707        7.2121968209
Ti         3.7780605790        1.8898089110        2.4047787933
Ti         1.8909288393        5.6669311845        4.8116646265
Ti         0.1564025538       11.3486793429        0.0487108732
Ti         0.0046566705        5.6673840424        2.4001391726
Ti         1.8988359842       11.3519845895        7.1948155392
Ti         0.0025804957        7.5592779097        0.0009852716
Ti         1.8957951582        9.4580536699        4.8089374393
Ti         7.5682151466        1.8898913377        2.4081090867
Ti         9.4589731145        0.0067779735        7.2140968180
Ti         1.8921301188        7.5657157772        7.2069601847
Ti         0.0031625630        9.4522603919        2.4135051952
Ti         9.4590902094        1.8903704430        4.8063241672
Ti         7.5677403190        0.0049634724       -0.0051972371
Ti         3.7778564577        3.7765762563       -0.0004462253
Ti        13.2364546432       13.2604658634        4.7962776238
Ti        11.3483454872        5.6645836369        2.4033331588
Ti         5.6689216639       11.3517513796        7.1956285814
Ti        13.2378279840        3.7761953234        7.2137955561
Ti         3.7805921231       13.2411705258        2.4061436847
Ti         5.6689564828        5.6674336372        4.8076588373
Ti        11.2050929879       11.3627762482        0.0388384395
Ti        11.3477309800       13.2528137236        2.4165728786
Ti         5.6689363390        3.7763151362        7.2148021315
Ti         3.8166806166       11.3514241120        0.0061450052
Ti        13.2381476818        5.6603086193        4.8090250840
Ti         5.6693581305       13.2414521067        4.8023695393
Ti        11.3490448776        3.7689123115       -0.0016181847
Ti        13.2356332131       11.3500212001        7.1271736042
Ti         3.7781530105        5.6673873960        2.3999569067
Ti         3.7790494517        7.5673946033        0.0049468310
Ti        13.2416251217        9.4397458503        4.8022022543
Ti         7.5684245030        5.6680852771        2.4034063522
Ti         9.4491741496       11.3520187534        7.1951153151
Ti        13.2406509015        7.5564487247        7.2029699450
Ti         3.7806553451        9.4595170903        2.4023277651
Ti         9.4592963535        5.6676245888        4.8111593418
Ti         7.5358740516       11.3522027358        0.0023736134
Ti        11.3506865907        9.4561812183        2.4239225826
Ti         5.6690124150        7.5673837625        7.2104819336
Ti         5.6676846798        9.4595507508        4.8061992518
Ti        11.3536809410        7.5276069792       -0.0158742475
Ti         9.4600947583        3.7768772948        7.2121198049
Ti         7.5662032388       13.2411029436        2.4092371936
Ti         7.5686558425        3.7767249199       -0.0039680345
Ti         9.4560410013       13.2428452123        4.8041268148
Ti         7.5664839831        7.5693020823        0.0031196002
Ti         9.4516110652        9.4589809366        4.8094479303
Ti         7.5660535035        9.4605276063        2.4061683173
Ti         9.4578557351        7.5684138978        7.2066025366
O         0.0062479554       -0.0033704321        1.9716807805
O         1.8853145418        1.8870000749        6.7937520431
O         0.0014517692        1.8840676320        4.3878614641
O         1.8822922992       -0.0050798450        9.2008724119
O         1.8857100763        0.0001036821        5.2277981191
O        -0.0009449929        1.8850857312        0.4146514566
O         1.8861239262        1.8844965080        2.8217683141
O        -0.0002753560        0.0022105017        7.6267703128
O         0.0014154716        3.7770396805        1.9811624243
O         1.8802690778       13.2330152180        6.7931063652
O        11.3524527281        1.8843875096        4.3917812919
O         5.6723323710        0.0004373736        9.1984121200
O         1.8848995047        3.7762030054        5.2303821653
O        -0.0725522863       13.2144626386        0.4016560527
O         5.6724177380        1.8846351557        2.8207188944
O        11.3529655078        0.0012527480        7.6294519912
O         3.7739108548       -0.0004002674        7.6350445313
O        13.2375925965        1.8833815180        2.8208921268
O        13.2348640537        0.0088885644        9.1945778579
O         3.7750350263        1.8845812553        4.3850616124
O         1.8854193127        5.6746990194        6.7945530669
O         0.0261345703       11.3511182739        1.9959644954