     192
 i =        7, E =     -5774.1707861497
Ti        -0.0002724272       -0.0001388909       -0.0002125987
Ti         0.0003053803        0.0001339970       -0.0002571223
Ti         0.0005129628        0.0006302827        0.0011044006
Ti         0.0000714846        0.0003011209        0.0004214817
Ti         0.0005443000        0.0000383210       -0.0000780935
Ti         0.0010312229        0.0009044877        0.0002563959
Ti        -0.0000454478        0.0004061862        0.0020496902
Ti        -0.0000059670        0.0006120974       -0.0002401080
Ti         0.0003553156       -0.0001763813       -0.0000160076
Ti        -0.0012862458        0.0016800881        0.0000925348
Ti         0.0000076686        0.0001688495       -0.0000990701
Ti         0.0012818527        0.0010183522       -0.0002393061
Ti        -0.0005255821        0.0005553841       -0.0000184955
Ti        -0.0000594292        0.0007912832       -0.0014069738
Ti         0.0002670245        0.0016902617        0.0014470266
Ti         0.0000712162        0.0000216405        0.0001273636
Ti         0.0003114532       -0.0003935128       -0.0001014687
Ti         0.0259058399        0.0030280879        0.0070476520
Ti         0.0002615387       -0.0007049097        0.0011040839
Ti         0.0060702072        0.0007656794       -0.0039409760
Ti        -0.0015973360       -0.0014534628       -0.0005133294
Ti         0.0011525779       -0.0008674924        0.0006739182
Ti        -0.0002856453        0.0001983732        0.0002585956
Ti        -0.0005740439        0.0006000473       -0.0001962739
Ti         0.0004172346       -0.0006402232       -0.0005373635
Ti        -0.0019246346       -0.0018897258        0.0026917868
Ti        -0.0005063291        0.0002540115       -0.0004719811
Ti        -0.0003763957        0.0005715108        0.0000337517
Ti         0.0002586398       -0.0001711173       -0.0000350255
Ti        -0.0003622308        0.0039773870       -0.0040896723
Ti        -0.0003220489       -0.0020085493        0.0020173011
Ti         0.0003296948        0.0001223616       -0.0032120899
Ti         0.0000056337        0.0000639322        0.0005246806
Ti        -0.0002160347        0.0008398271       -0.0000738651
Ti         0.0001801147       -0.0002175701        0.0000849678
Ti        -0.0199292921       -0.0040114393        0.0058496224
Ti         0.0016833694        0.0025291827        0.0025873692
Ti         0.0000903392        0.0000379451       -0.0000234914
Ti         0.0017236178        0.0005570750        0.0004438658
Ti        -0.0001176486       -0.0009524349       -0.0012614962
Ti         0.0001130441        0.0003595822        0.0005025615
Ti        -0.0002715044       -0.0004342414        0.0000429820
Ti        -0.0006859365       -0.0009891718       -0.0272553555
Ti         0.0002929706       -0.0003182901        0.0000768664
Ti         0.0004534178       -0.0006955069        0.0000932947
Ti         0.0008655619       -0.0039419000       -0.0027297248
Ti         0.0000435500        0.0001605970       -0.0000849039
Ti        -0.0061294622       -0.0013241948       -0.0027750255
Ti        -0.0002907497       -0.0005542690        0.0007338772
Ti         0.0004660743       -0.0007791893       -0.0001206923
Ti        -0.0006217519       -0.0001474130       -0.0002292220
Ti         0.0004664188       -0.0007577257        0.0001986946
Ti         0.0013805743       -0.0010721976        0.0054621339
Ti         0.0001698170       -0.0005075991       -0.0005237247
Ti         0.0001349114       -0.0005605258        0.0008869981
Ti         0.0004996961       -0.0055247675       -0.0012330127
Ti        -0.0007000489        0.0003519098        0.0000179030
Ti        -0.0001787391        0.0003097504        0.0000544196
Ti        -0.0002822333        0.0003367025       -0.0000337043
Ti        -0.0010123717        0.0005261308        0.0000376353
Ti         0.0010786761        0.0002020874        0.0001696190
Ti        -0.0023409258       -0.0008767035        0.0013671370
Ti         0.0007080368       -0.0009174985       -0.0008098343
Ti        -0.0005834438        0.0008875260        0.0004134333
O         0.0010063670        0.0004301517        0.0000717066
O         0.0004110960       -0.0005643724        0.0003828724
O        -0.0002700585        0.0005016229       -0.0006359533
O        -0.0007413165        0.0019199617       -0.0000226558
O         0.0008309353       -0.0006950449        0.0000713769
O         0.0001258337       -0.0031891747       -0.0016242247
O        -0.0006231439        0.0004350971        0.0001992324
O        -0.0003938198        0.0027235268        0.0001046773
O         0.0004435031        0.0005870201        0.0008264478
O         0.0011755707       -0.0021284539       -0.0007934900
O         0.0004790872        0.0004069302       -0.0004661737
O         0.0000426588        0.0002649715        0.0004883973
O         0.0003721148        0.0001145165       -0.0001891982
O        -0.0016204650       -0.0086093974       -0.0013765643
O         0.0000663113        0.0001232376       -0.0000699276
O         0.0002006739        0.0021535878        0.0004017243
O        -0.0002586444        0.0005289925       -0.0002484608
O        -0.0000944890        0.0005838444        0.0006941119
O        -0.0006750757        0.0042746377       -0.0016101922
O        -0.0002986016        0.0002370356       -0.0000097891
O         0.0004379245        0.0008115504        0.0002712865
O         0.0044983524       -0.0013088696       -0.0031546179
O         0.0006250537        0.0015756840       -0.0012542642
O         0.0010816006       -0.0001182584        0.0020456262
O         0.0021334163        0.0012882451        0.0002059921
O         0.0009667989        0.0018666413       -0.0004630436
O         0.0003849260        0.0001307015       -0.0000125388
O         0.0011991125        0.0010543895        0.0000102637
O         0.0008163588        0.0010222397        0.0002510457
O        -0.0000270829        0.0084982695       -0.0025586709
O         0.0005514844        0.0002219519        0.0002300743
O         0.0005745825        0.0005221067       -0.0002939147
O         0.0007767679       -0.0003956088        0.0000539495
O        -0.0000280190       -0.0017556039        0.0013513833
O        -0.0003413643       -0.0004150973       -0.0004074936
O        -0.0126294932       -0.0009318002        0.0039556904
O        -0.0000963441       -0.0021961119       -0.0004508435
O         0.0003661633       -0.0003897977       -0.0002606966
O        -0.0006795052       -0.0001830025       -0.0000829093
O        -0.0027341502       -0.0003254905        0.0050790470
O        -0.0002818001       -0.0009517184       -0.0015415933
O         0.0000239946       -0.0002627482        0.0001109567
O         0.0000115169       -0.0003470804        0.0001465117
O        -0.0012718293        0.0005356366        0.0009922745
O        -0.0006098638        0.0001117615       -0.0000963644
O        -0.0010503587        0.0012639071       -0.0020068834
O        -0.0002518349       -0.0000715183        0.0004997843
O        -0.0016322002        0.0004566438        0.0001400973
O         0.0001911564        0.0001124718        0.0001153699
O        -0.0002524364       -0.0071068336        0.0003582393
O         0.0005514996       -0.0004338475       -0.0010932668
O        -0.0003390532        0.0001298130        0.0018880279
O         0.0001250228        0.0001974476       -0.0008218874
O         0.0017838557       -0.0013540027        0.0006577924
O        -0.0000039706       -0.0001453938       -0.0002496069
O         0.0029473014        0.0024430450        0.0043793731
O        -0.0015285399       -0.0101579535       -0.0027754585
O        -0.0000445061        0.0000444552       -0.0000457176
O         0.0006453480       -0.0000174614       -0.0019302343
O        -0.0005260346       -0.0002316736        0.0007944296
O        -0.0000350350       -0.0006627103       -0.0002827025
O        -0.0002892746       -0.0009699145        0.0013080652
O        -0.0042448053        0.0004700269        0.0117468911
O        -0.0003620498       -0.0001589826        0.0001463349
O        -0.0001172886        0.0004923347       -0.0000788508
O        -0.0038402153        0.0019164710       -0.0028343778
O        -0.0003426554       -0.0005242736       -0.0008354333
O        -0.0007652271        0.0003593808        0.0004700542
O        -0.0000239856        0.0065269517       -0.0030598314
O        -0.0001263214        0.0000024476        0.0006316192
O        -0.0003105265       -0.0000200846       -0.0000726832
O        -0.0001119005        0.0021372970        0.0034482379
O         0.0003997960       -0.0001120927        0.0139114044
O         0.0001601961        0.0006197604       -0.0000723090
O         0.0000304785        0.0002914777       -0.0008639232
O         0.0004344439       -0.0006339477        0.0008340093
O         0.0012768549       -0.0001222953       -0.0013177622
O         0.0003021372        0.0016029490        0.0011686185
O         0.0011485888        0.0013563342       -0.0010345762
O         0.0000462295       -0.0001214968        0.0001317526
O         0.0004081319        0.0007187155       -0.0002811128
O         0.0011348963        0.0067278783       -0.0006394344
O         0.0004374740       -0.0003435545        0.0001176889
O         0.0091406134        0.0031188374        0.0025284125
O         0.0006099104        0.0018856510        0.0001225558
O         0.0011736148        0.0009894515        0.0006809866
O         0.0010245790       -0.0002970828        0.0004096836
O        -0.0004101791        0.0005240621       -0.0022356980
O         0.0011596746        0.0115528007       -0.0054601067
O        -0.0001698126        0.0006053209        0.0003808865
O        -0.0002037655        0.0004943245       -0.0004190404
O        -0.0009339104        0.0005663999       -0.0013234328
O         0.0007771654       -0.0007627014       -0.0004273682
O         0.0007076505        0.0005636461        0.0005480263
O         0.0003825577       -0.0002946331       -0.0000724580
O         0.0018718852        0.0008227037       -0.0002962649
O        -0.0004135858       -0.0003959794        0.0000845517
O        -0.0003387798       -0.0005841498        0.0006804321
O        -0.0012376201       -0.0009548912       -0.0009152696
O        -0.0016338732       -0.0006027791        0.0008098630
O        -0.0006827323       -0.0006661875       -0.0001507860
O        -0.0001870663       -0.0004152233       -0.0003948828
O        -0.0023739520       -0.0004507960       -0.0008735770
O         0.0001353449       -0.0020846032       -0.0000045816
O        -0.0002969230       -0.0000218222        0.0001923083
O        -0.0008537759       -0.0019397469       -0.0001037852
O         0.0015971134       -0.0007408679       -0.0068352711
O         0.0001752849       -0.0001155080        0.0009352696
O        -0.0003709159        0.0001250551       -0.0003270069
O        -0.0012024718       -0.0008938892        0.0004348626
O        -0.0000140328       -0.0000697726       -0.0011815969
O         0.0008771972       -0.0041007543        0.0006225756
O        -0.0006039038       -0.0003888749       -0.0005092717
O        -0.0012743972       -0.0017712763        0.0038838391
O        -0.0009442625       -0.0054759688       -0.0009282537
O        -0.0008121773       -0.0002490943        0.0007320999
O        -0.0004760012        0.0006909532        0.0002385958
O        -0.0017366345        0.0004100829       -0.0009575105
O        -0.0006737144        0.0005204351       -0.0001181370
O        -0.0012476402        0.0001183028        0.0017506731
O        -0.0014699108        0.0004922552       -0.0000489078
O        -0.0017553779        0.0016817628       -0.0017379629
O         0.0007877615       -0.0001261562        0.0008966220
O         0.0021769247       -0.0033810129        0.0002047691
O        -0.0011241904        0.0009701828        0.0006009575
O        -0.0030469850        0.0010269824        0.0010145924
O         0.0027228654       -0.0001089834        0.0008554947
O         0.0004612457       -0.0006798564       -0.0005849312
     192
 i =        8, E =     -5774.1790785228
Ti        -0.0011050195       -0.0021853828        0.0003865155
Ti        -0.0000171996        0.0001449648       -0.0000501011
Ti         0.0002726680       -0.0006796014        0.0001454195
Ti        -0.0008468337        0.0011056407        0.0007582523
Ti        -0.0002006317        0.0011013786       -0.0012191135
Ti        -0.0000064897        0.0005926620       -0.0004159930
Ti        -0.0003009331        0.0003759129        0.0005598213
Ti         0.0001753163        0.0004472647        0.0001778627
Ti        -0.0005084482        0.0002636008        0.0006522322
Ti        -0.0011019213       -0.0001956755       -0.0028044012
Ti         0.0001193035        0.0002286470       -0.0001206164
Ti         0.0011972970        0.0011846388       -0.0014261876
Ti        -0.0003053219        0.0007444037        0.0000046368
Ti        -0.0000147818        0.0005844564       -0.0005567155
Ti        -0.0003389865        0.0010787210        0.0021344200
Ti         0.0000676459        0.0000548694       -0.0001163470
Ti        -0.0002180514        0.0001406984       -0.0000554118
Ti         0.0060821198        0.0011397857        0.0011602085
Ti        -0.0000197614        0.0008330819       -0.0002481109
Ti         0.0007488958       -0.0004934130       -0.0043702204
Ti        -0.0044398849        0.0001499883       -0.0012680570
Ti        -0.0002735246       -0.0010513283       -0.0000386170
Ti         0.0001893073        0.0001014520       -0.0002348381
Ti         0.0007754065        0.0005633408        0.0005812721
Ti        -0.0015080161       -0.0006637768        0.0005959230
Ti        -0.0028778927       -0.0001977552       -0.0007613737
Ti        -0.0002985846        0.0002399459       -0.0000108248
Ti         0.0001960603        0.0002433448        0.0002652216
Ti        -0.0000056860        0.0001895409       -0.0001900081
Ti        -0.0005070803        0.0035748407       -0.0019269326
Ti        -0.0003144550        0.0035860822        0.0004562741
Ti         0.0005784826       -0.0001355732       -0.0034054233
Ti        -0.0003696333        0.0007582537        0.0019841020
Ti         0.0002609363        0.0001603872       -0.0005076963
Ti         0.0003475067        0.0001048882       -0.0001229083
Ti        -0.0071026109       -0.0197805489        0.0050284057
Ti         0.0003773290       -0.0030445011        0.0006714357
Ti         0.0002723948        0.0002265179        0.0003317046
Ti         0.0032396610       -0.0003787298        0.0019680074
Ti        -0.0004738646        0.0003385481       -0.0006004455
Ti         0.0002992867        0.0005395572       -0.0000147891
Ti         0.0000169329       -0.0002434605       -0.0013201636
Ti        -0.0008095722       -0.0008881956       -0.0089585042
Ti         0.0000536123        0.0003258828       -0.0002551307
Ti         0.0000715802       -0.0003285905        0.0003690245
Ti        -0.0001264445       -0.0046059254       -0.0030727759
Ti         0.0004746423        0.0009760144       -0.0006449691
Ti        -0.0007982821       -0.0003777214       -0.0025038602
Ti        -0.0013505495       -0.0005951759        0.0045447146
Ti         0.0003632417       -0.0007367080       -0.0009172904
Ti         0.0001092946        0.0008004970        0.0000547344
Ti         0.0002035270       -0.0006485046        0.0019237023
Ti         0.0007248327       -0.0012629603       -0.0143079833
Ti         0.0008018337       -0.0002872060        0.0003423371
Ti         0.0006312490       -0.0010762751       -0.0000731993
Ti         0.0012577338        0.0137133458        0.0036423334
Ti         0.0003872892        0.0006955596        0.0008601166
Ti         0.0001548989       -0.0004471939       -0.0009680129
Ti         0.0003933305        0.0007128537       -0.0001233467
Ti        -0.0000132797       -0.0000720294       -0.0000315450
Ti         0.0034088612       -0.0001199055       -0.0000871972
Ti        -0.0003738186       -0.0011551031       -0.0014230104
Ti         0.0018213673       -0.0008022733       -0.0011649024
Ti         0.0017930862       -0.0004444606        0.0031363191
O        -0.0000897862        0.0001715689        0.0001001786
O         0.0001450919        0.0004760053       -0.0003494163
O         0.0002369854       -0.0002045986       -0.0000639392
O         0.0021703567       -0.0008830497       -0.0002825166
O        -0.0002557477       -0.0001639800       -0.0001114419
O         0.0000910440        0.0017410763        0.0000642358
O         0.0004157218       -0.0000322983        0.0000615600
O         0.0009263095       -0.0014452467       -0.0011584938
O        -0.0000641975       -0.0007925297       -0.0001394289
O        -0.0003417689       -0.0001755130        0.0000288767
O         0.0001946492       -0.0001614981       -0.0001253831
O        -0.0000068229        0.0001086553       -0.0003410835
O        -0.0000468991       -0.0001854002        0.0001364952
O        -0.0011187563        0.0002204446        0.0025235853
O        -0.0000420942        0.0000353872        0.0002115732
O        -0.0005506635       -0.0012370989       -0.0007758785
O         0.0000971475       -0.0003589335        0.0001475914
O        -0.0001048871       -0.0001993108        0.0004094415
O        -0.0011281444       -0.0005787285       -0.0005072390
O         0.0000222204       -0.0000850507       -0.0000794650
O         0.0001819686       -0.0001003769       -0.0004156500
O         0.0010587995        0.0007077740        0.0011515984
O         0.0000068599       -0.0011058341        0.0005728495
O        -0.0004406839        0.0003901611        0.0011899407
O        -0.0005107988        0.0006382999        0.0004545349
O         0.0001084337        0.0004190937       -0.0003331370
O        -0.0001179068       -0.0000066378        0.0000067056
O        -0.0013603155       -0.0007189786        0.0001264261
O        -0.0001008884        0.0006725820       -0.0000333626
O        -0.0008524151       -0.0003599833        0.0005852146
O        -0.0003526803        0.0000500746        0.0004248688
O        -0.0000759940       -0.0002486247        0.0000676015
O        -0.0004702902        0.0000061273        0.0002236453
O         0.0000794084        0.0003083517       -0.0005033122
O         0.0004836493       -0.0002321558       -0.0000932412
O        -0.0042047610        0.0009129417        0.0039159973
O         0.0001497503       -0.0017318232       -0.0008304010
O        -0.0000130429        0.0001396432        0.0000829947
O         0.0006594495       -0.0002585071        0.0002963346
O         0.0019590214        0.0003737686       -0.0019061312
O        -0.0000145394        0.0012234392        0.0000117551
O        -0.0000766830        0.0001403564       -0.0000539247
O        -0.0000718224       -0.0002156077       -0.0000579519
O         0.0005561060       -0.0007173582        0.0002177379
O         0.0005824224       -0.0002899820        0.0001986065
O        -0.0000734640       -0.0003586239        0.0002565334
O         0.0005476784       -0.0001642696       -0.0002741215
O         0.0028259738        0.0004294169        0.0003625137
O        -0.0000278282       -0.0001597132       -0.0000450320
O         0.0005957050        0.0016646705       -0.0008289606
O         0.0001991110       -0.0003007944        0.0000887376
O        -0.0009748195        0.0001919420        0.0005581255
O        -0.0000300734       -0.0003396432       -0.0003501878
O        -0.0007120429       -0.0000294627       -0.0001745552
O        -0.0003966537       -0.0002038335        0.0003411390
O        -0.0011319197        0.0000819676       -0.0019661654
O         0.0001439435        0.0034477504       -0.0001188034
O        -0.0000396646       -0.0001655952        0.0000414737
O         0.0001078285        0.0002476053       -0.0013603459
O         0.0008510365       -0.0002935860        0.0003199666
O        -0.0000980015        0.0000562986       -0.0004039249
O         0.0000391713       -0.0007068128        0.0002580023
O         0.0018242018        0.0024901942        0.0125725276
O        -0.0000045384       -0.0001181642       -0.0000805773
O        -0.0000717049       -0.0000496135       -0.0000815517
O        -0.0006732000        0.0049180110        0.0028628672
O         0.0003738047       -0.0000757337        0.0003374061
O        -0.0005202523       -0.0000376321       -0.0001378881
O        -0.0000362386       -0.0029326240       -0.0004546207
O        -0.0000769424        0.0003711628        0.0003832041
O         0.0000884450       -0.0000634689        0.0000083905
O        -0.0002561648       -0.0002395365        0.0020121532
O        -0.0001816661        0.0006168854        0.0080172332
O         0.0000556678       -0.0000095331       -0.0000128349
O        -0.0002057281        0.0001799561        0.0006645907
O         0.0000085724        0.0002142694       -0.0004956432
O        -0.0005303422        0.0003476951       -0.0002010063
O         0.0001740169       -0.0014130535       -0.0010165229
O         0.0007794317       -0.0002294619        0.0001239960
O        -0.0002078229       -0.0000211658       -0.0001432635
O        -0.0001701912        0.0003398312        0.0003212938
O        -0.0009123802        0.0005410422       -0.0013592540
O        -0.0002229719       -0.0001381452        0.0001107768
O         0.0008871758        0.0000589442        0.0016618890
O        -0.0002438111        0.0016298411       -0.0010111689
O        -0.0001520376        0.0003664047       -0.0000488336
O        -0.0009110734       -0.0004199823        0.0002274060
O        -0.0014340136       -0.0004329480       -0.0017285075
O         0.0006893822        0.0044960970        0.0044677958
O        -0.0000544631        0.0002252364       -0.0001254560
O        -0.0000137996        0.0003857914       -0.0004092772
O         0.0002338826       -0.0042702799        0.0010052628
O        -0.0006859594        0.0002355311        0.0001645025
O         0.0001681919       -0.0001361780       -0.0000800643
O        -0.0002448835        0.0001214637       -0.0001546098
O        -0.0022247282        0.0005889248        0.0005012963
O         0.0000852991        0.0002694789        0.0000920856
O        -0.0001957231       -0.0000885680       -0.0005288624
O        -0.0002148461        0.0002728252        0.0002082519
O         0.0026050182        0.0005601060       -0.0001845531
O         0.0001114920        0.0000471978        0.0000649445
O        -0.0001468161       -0.0002443785        0.0001355945
O         0.0029773086       -0.0001894081        0.0007010981
O         0.0019753755        0.0005288820       -0.0010637898
O         0.0000313405       -0.0003470685       -0.0000539619
O        -0.0001408408        0.0014061175       -0.0006978814
O         0.0007496550        0.0002092430        0.0014791774
O        -0.0010155244       -0.0002600964       -0.0006682114
O         0.0000460574       -0.0002520619        0.0001213010
O        -0.0002630563        0.0010844690        0.0001908525
O        -0.0008654900       -0.0000924322        0.0008017022
O        -0.0005770731       -0.0003212749       -0.0034273099
O        -0.0000248173        0.0000577138        0.0002301491
O         0.0037353398        0.0006856785        0.0041048593
O         0.0051799602       -0.0022414514       -0.0024278894
O        -0.0004894461        0.0001112988       -0.0000114815
O        -0.0003415610       -0.0013904965       -0.0009036420
O         0.0002065691        0.0009073748        0.0000498319
O        -0.0002172833       -0.0009611312        0.0003899009
O         0.0004596557        0.0006470378        0.0007590810
O         0.0002502282        0.0000577324        0.0007396459
O         0.0006035402        0.0008891464       -0.0004267880
O         0.0000955796        0.0000512024        0.0004492769
O        -0.0064878332       -0.0010328746       -0.0022967927
O         0.0002200524        0.0005225664       -0.0004874164
O         0.0001965100        0.0007922740       -0.0000793668
O        -0.0054747386       -0.0002218906        0.0021172378
O        -0.0009118532        0.0003646862       -0.0002913454
     192
 i =        9, E =     -5774.1821941230
Ti        -0.0012344282       -0.0037544049        0.0009054395
Ti        -0.0003976612       -0.0000904165        0.0000100272
Ti         0.0000071284       -0.0008145477       -0.0007095276
Ti        -0.0012508091       -0.0003374267        0.0005203266
Ti        -0.0004000633        0.0002295434        0.0000955067
Ti        -0.0007594046        0.0003706987       -0.0005002443
Ti         0.0001797756        0.0000198365       -0.0007011725
Ti        -0.0000117406        0.0001134593        0.0002889021
Ti        -0.0004684136       -0.0000285623       -0.0000395962
Ti        -0.0014764646       -0.0015969329       -0.0037264390
Ti         0.0000684124        0.0000308253       -0.0001670830
Ti         0.0014645441       -0.0016428350       -0.0006187572
Ti        -0.0010444431        0.0000163536       -0.0003347164
Ti         0.0000251599        0.0001522701       -0.0000686523
Ti        -0.0002903110       -0.0024261248        0.0009539946
Ti        -0.0003909174       -0.0001284506        0.0000176628
Ti        -0.0003686518        0.0001487021        0.0000069916
Ti        -0.0073026278        0.0010778641       -0.0012444657
Ti        -0.0003084856        0.0007075499       -0.0007449609
Ti        -0.0026890916        0.0000342746       -0.0039970530
Ti        -0.0031190089        0.0023887978       -0.0001781198
Ti        -0.0006925069       -0.0005852179       -0.0005663943
Ti         0.0004039357       -0.0000439239       -0.0000636423
Ti         0.0012903291       -0.0006543200        0.0002678920
Ti        -0.0014596705        0.0005384779        0.0005727110
Ti        -0.0022575033        0.0014210632       -0.0025240854
Ti         0.0001177465       -0.0000180127        0.0001619675
Ti         0.0007943817       -0.0001033487       -0.0000464032
Ti        -0.0002433527       -0.0000019201       -0.0000139371
Ti        -0.0002204191        0.0017095581        0.0013738318
Ti         0.0000682671        0.0034028024       -0.0010716646
Ti         0.0002928655       -0.0000554907       -0.0030541708
Ti        -0.0004172818        0.0007049213        0.0006491453
Ti        -0.0014619581        0.0000395123        0.0000006760
Ti         0.0001099872        0.0000184271       -0.0001609000
Ti         0.0032353919       -0.0110935877        0.0011455202
Ti         0.0011831263       -0.0040641688       -0.0017213022
Ti         0.0001238436        0.0001319363        0.0001345900
Ti         0.0018353482       -0.0000166086        0.0016800049
Ti        -0.0003223183        0.0001625513        0.0001384411
Ti         0.0000917295        0.0008021566       -0.0002965150
Ti         0.0002469586        0.0000144044       -0.0003078386
Ti        -0.0003894988        0.0008503426       -0.0009164172
Ti        -0.0002866520        0.0001735634        0.0000941539
Ti        -0.0007642576        0.0001618236       -0.0003431061
Ti        -0.0008222031       -0.0020356954       -0.0004400252
Ti         0.0006562765        0.0002685507       -0.0003162825
Ti         0.0026665494        0.0005011320       -0.0029121862
Ti        -0.0009198981        0.0011852892        0.0027582593
Ti        -0.0012983171       -0.0002582378        0.0000817566
Ti         0.0003642926        0.0002818975        0.0003623487
Ti        -0.0005130737       -0.0000280139        0.0015744273
Ti         0.0013400671        0.0002447052       -0.0118164685
Ti         0.0004749777        0.0000005953        0.0006225746
Ti         0.0002022526       -0.0010382022       -0.0005095731
Ti         0.0012271923        0.0124656952        0.0037882296
Ti         0.0005606998        0.0007432395        0.0000589613
Ti         0.0012708746        0.0000110263       -0.0001929635
Ti         0.0005602490        0.0004925766        0.0001686814
Ti         0.0006489349        0.0003322213       -0.0000462636
Ti         0.0028177115       -0.0003156550       -0.0008014024
Ti         0.0011576410       -0.0007285693       -0.0018980794
Ti         0.0020841890       -0.0004022270        0.0000478468
Ti         0.0016922582       -0.0003242261        0.0021431599
O        -0.0000675154        0.0010888010       -0.0000212312
O        -0.0000268711        0.0000363423        0.0000294736
O         0.0002612997        0.0000480998       -0.0001773503
O         0.0016243388       -0.0000410170       -0.0004207906
O        -0.0000469857        0.0005325821       -0.0002122529
O         0.0000734102        0.0019359395        0.0001254680
O         0.0004511157        0.0000460210        0.0000176393
O         0.0011855661       -0.0000170744       -0.0003682757
O         0.0000622669       -0.0004028231       -0.0001238746
O         0.0003565255        0.0002451159       -0.0000679491
O        -0.0001028562        0.0000306875       -0.0003950460
O         0.0000014605        0.0001179659       -0.0001102120
O         0.0000151014        0.0000188532       -0.0000242806
O         0.0033272221        0.0034539624        0.0026719004
O        -0.0000428809        0.0000550360        0.0000230960
O        -0.0010352553        0.0001360114       -0.0004736665
O         0.0005965381        0.0001966832        0.0000999925
O        -0.0001197757        0.0000244207        0.0005142851
O        -0.0004465124       -0.0003132657       -0.0006560673
O         0.0002921307        0.0000666528       -0.0000281744
O        -0.0000301174       -0.0003352536        0.0000366053
O         0.0023097585        0.0002800455        0.0019907806