 DBCSR| CPU Multiplication driver                                           XSMM (U)
 DBCSR| Multrec recursion limit                                              512 (U)
 DBCSR| Multiplication stack size                                           1000 (D)
 DBCSR| Maximum elements for images                                    UNLIMITED (U)
 DBCSR| Multiplicative factor virtual images                                   1 (U)
 DBCSR| Use multiplication densification                                       T (D)
 DBCSR| Multiplication size stacks                                             3 (U)
 DBCSR| Use memory pool for CPU allocation                                     F (U)
 DBCSR| Number of 3D layers                                               SINGLE (U)
 DBCSR| Use MPI memory allocation                                              F (U)
 DBCSR| Use RMA algorithm                                                      F (U)
 DBCSR| Use Communication thread                                               T (U)
 DBCSR| Communication thread load                                             87 (D)
 DBCSR| MPI: My process id                                                     0
 DBCSR| MPI: Number of processes                                             128
 DBCSR| OMP: Current number of threads                                         1
 DBCSR| OMP: Max number of threads                                             1
 DBCSR| Split modifier for TAS multiplication algorithm                  1.0E+00 (U)


  **** **** ******  **  PROGRAM STARTED AT               2025-06-12 11:09:11.250
 ***** ** ***  *** **   PROGRAM STARTED ON                             nid003483
 **    ****   ******    PROGRAM STARTED BY                                cahart
 ***** **    ** ** **   PROGRAM PROCESS ID                                125516
  **** **  *******  **  PROGRAM STARTED IN /mnt/lustre/a2fs-work2/work/e05/e05/c
                                           ahart/postdoc2/work/group/tio2/anatas
                                           e/cell-441/geo-opt/mp-390/neutral/pbe
                                           -u-o/u-3.0-rs-5.0

 CP2K| version string:                                       CP2K version 2024.3
 CP2K| source code revision number:                                  git:6712648
 CP2K| cp2kflags: omp libint fftw3 libxc libgrpp elpa parallel scalapack cosma x
 CP2K|            smm plumed2 spglib mkl sirius libvori libbqb libvdwxc hdf5
 CP2K| is freely available from                            https://www.cp2k.org/
 CP2K| Program compiled at                       Thu 12 Sep 2024 10:20:47 AM BST
 CP2K| Program compiled on                                                  ln04
 CP2K| Program compiled for                                                local
 CP2K| Data directory path    /mnt/lustre/a2fs-work1/work/y07/shared/apps/core/c
 CP2K| Input file name                                                 input.inp

 GLOBAL| Force Environment number                                              1
 GLOBAL| Basis set file name                                        BASIS_MOLOPT
 GLOBAL| Potential file name                                      GTH_POTENTIALS
 GLOBAL| MM Potential file name                                     MM_POTENTIAL
 GLOBAL| Coordinate file name                                         system.xyz
 GLOBAL| Method name                                                        CP2K
 GLOBAL| Project name                                                       tio2
 GLOBAL| Run type                                                        GEO_OPT
 GLOBAL| FFT library                                                       FFTW3
 GLOBAL| Diagonalization library                                            ELPA
 GLOBAL| DGEMM library                                                      BLAS
 GLOBAL| Minimum number of eigenvectors for ELPA usage                        16
 GLOBAL| Orthonormality check for eigenvectors                          DISABLED
 GLOBAL| Matrix multiplication library                                     COSMA
 GLOBAL| All-to-all communication in single precision                          F
 GLOBAL| FFTs using library dependent lengths                                  F
 GLOBAL| Grid backend                                                       AUTO
 GLOBAL| Global print level                                               MEDIUM
 GLOBAL| MPI I/O enabled                                                       T
 GLOBAL| Total number of message passing processes                           128
 GLOBAL| Number of threads for this process                                    1
 GLOBAL| This output is from process                                           0
 GLOBAL| Stack size for threads created by OpenMP (OMP_STACKSIZE)        default
 GLOBAL| CPU model name                          AMD EPYC 7742 64-Core Processor
 GLOBAL| CPUID                                                              1002

 MEMORY| system memory details [Kb]
 MEMORY|                        rank 0           min           max       average
 MEMORY| MemTotal            263341976     263341976     263341976     263341976
 MEMORY| MemFree             233860740     233852188     233860740     233856748
 MEMORY| Buffers                     0             0             0             0
 MEMORY| Cached                2296968       2296968       2296968       2296968
 MEMORY| Slab                  6067352       6067340       6067352       6067346
 MEMORY| SReclaimable           906908        906908        906908        906908
 MEMORY| MemLikelyFree       237064616     237056064     237064616     237060624


 *** Fundamental physical constants (SI units) ***

 *** Literature: B. J. Mohr and B. N. Taylor,
 ***             CODATA recommended values of the fundamental physical
 ***             constants: 2006, Web Version 5.1
 ***             http://physics.nist.gov/constants

 Speed of light in vacuum [m/s]                             2.99792458000000E+08
 Magnetic constant or permeability of vacuum [N/A**2]       1.25663706143592E-06
 Electric constant or permittivity of vacuum [F/m]          8.85418781762039E-12
 Planck constant (h) [J*s]                                  6.62606896000000E-34
 Planck constant (h-bar) [J*s]                              1.05457162825177E-34
 Elementary charge [C]                                      1.60217648700000E-19
 Electron mass [kg]                                         9.10938215000000E-31
 Electron g factor [ ]                                     -2.00231930436220E+00
 Proton mass [kg]                                           1.67262163700000E-27
 Fine-structure constant                                    7.29735253760000E-03
 Rydberg constant [1/m]                                     1.09737315685270E+07
 Avogadro constant [1/mol]                                  6.02214179000000E+23
 Boltzmann constant [J/K]                                   1.38065040000000E-23
 Atomic mass unit [kg]                                      1.66053878200000E-27
 Bohr radius [m]                                            5.29177208590000E-11

 *** Conversion factors ***

 [u] -> [a.u.]                                              1.82288848426455E+03
 [Angstrom] -> [Bohr] = [a.u.]                              1.88972613288564E+00
 [a.u.] = [Bohr] -> [Angstrom]                              5.29177208590000E-01
 [a.u.] -> [s]                                              2.41888432650478E-17
 [a.u.] -> [fs]                                             2.41888432650478E-02
 [a.u.] -> [J]                                              4.35974393937059E-18
 [a.u.] -> [N]                                              8.23872205491840E-08
 [a.u.] -> [K]                                              3.15774647902944E+05
 [a.u.] -> [kJ/mol]                                         2.62549961709828E+03
 [a.u.] -> [kcal/mol]                                       6.27509468713739E+02
 [a.u.] -> [Pa]                                             2.94210107994716E+13
 [a.u.] -> [bar]                                            2.94210107994716E+08
 [a.u.] -> [atm]                                            2.90362800883016E+08
 [a.u.] -> [eV]                                             2.72113838565563E+01
 [a.u.] -> [Hz]                                             6.57968392072181E+15
 [a.u.] -> [1/cm] (wave numbers)                            2.19474631370540E+05
 [a.u./Bohr**2] -> [1/cm]                                   5.14048714338585E+03
 

 CELL_TOP| Volume [angstrom^3]:                                      2198.132028
 CELL_TOP| Vector a [angstrom    15.120     0.000     0.000   |a| =    15.120000
 CELL_TOP| Vector b [angstrom     0.000    15.120     0.000   |b| =    15.120000
 CELL_TOP| Vector c [angstrom     0.000     0.000     9.615   |c| =     9.615020
 CELL_TOP| Angle (b,c), alpha [degree]:                                90.000000
 CELL_TOP| Angle (a,c), beta  [degree]:                                90.000000
 CELL_TOP| Angle (a,b), gamma [degree]:                                90.000000
 CELL_TOP| Requested initial symmetry:                       MONOCLINIC_GAMMA_AB
 CELL_TOP| Numerically orthorhombic:                                         YES
 CELL_TOP| Periodicity                                                       XYZ

 *** WARNING in atoms_input.F:123 :: Overwriting coordinates. Active    ***
 *** coordinates read from &COORD section. Active coordinates READ from ***
 *** &COORD section                                                     ***


 GENERATE|  Preliminary Number of Bonds generated:                             0
 GENERATE|  Achieved consistency in connectivity generation.

 CELL| Volume [angstrom^3]:                                          2198.132028
 CELL| Vector a [angstrom]:      15.120     0.000     0.000   |a| =    15.120000
 CELL| Vector b [angstrom]:       0.000    15.120     0.000   |b| =    15.120000
 CELL| Vector c [angstrom]:       0.000     0.000     9.615   |c| =     9.615020
 CELL| Angle (b,c), alpha [degree]:                                    90.000000
 CELL| Angle (a,c), beta  [degree]:                                    90.000000
 CELL| Angle (a,b), gamma [degree]:                                    90.000000
 CELL| Requested initial symmetry:                           MONOCLINIC_GAMMA_AB
 CELL| Numerically orthorhombic:                                             YES
 CELL| Periodicity                                                           XYZ

 CELL_REF| Volume [angstrom^3]:                                      2198.132028
 CELL_REF| Vector a [angstrom    15.120     0.000     0.000   |a| =    15.120000
 CELL_REF| Vector b [angstrom     0.000    15.120     0.000   |b| =    15.120000
 CELL_REF| Vector c [angstrom     0.000     0.000     9.615   |c| =     9.615020
 CELL_REF| Angle (b,c), alpha [degree]:                                90.000000
 CELL_REF| Angle (a,c), beta  [degree]:                                90.000000
 CELL_REF| Angle (a,b), gamma [degree]:                                90.000000
 CELL_REF| Requested initial symmetry:                       MONOCLINIC_GAMMA_AB
 CELL_REF| Numerically orthorhombic:                                         YES
 CELL_REF| Periodicity                                                       XYZ

 *******************************************************************************
 *******************************************************************************
 **                                                                           **
 **     #####                         ##              ##                      **
 **    ##   ##            ##          ##              ##                      **
 **   ##     ##                       ##            ######                    **
 **   ##     ##  ##   ##  ##   #####  ##  ##   ####   ##    #####    #####    **
 **   ##     ##  ##   ##  ##  ##      ## ##   ##      ##   ##   ##  ##   ##   **
 **   ##  ## ##  ##   ##  ##  ##      ####     ###    ##   ######   ######    **
 **    ##  ###   ##   ##  ##  ##      ## ##      ##   ##   ##       ##        **
 **     #######   #####   ##   #####  ##  ##  ####    ##    #####   ##        **
 **           ##                                                    ##        **
 **                                                                           **
 **                                                ... make the atoms dance   **
 **                                                                           **
 **            Copyright (C) by CP2K developers group (2000-2024)             **
 **                      J. Chem. Phys. 152, 194103 (2020)                    **
 **                                                                           **
 *******************************************************************************

 DFT| Spin unrestricted (spin-polarized) Kohn-Sham calculation               UKS
 DFT| Multiplicity                                                             1
 DFT| Number of spin states                                                    2
 DFT| Charge                                                                   0
 DFT| Self-interaction correction (SIC)                                       NO
 DFT| Cutoffs: density                                              1.000000E-10
 DFT|          gradient                                             1.000000E-10
 DFT|          tau                                                  1.000000E-10
 DFT|          cutoff_smoothing_range                               0.000000E+00
 DFT| XC density smoothing                                                  NONE
 DFT| XC derivatives                                                          PW

 DFT+U| Method                                                          MULLIKEN
 DFT+U| Check atomic kind information for details

 FUNCTIONAL| PBE:
 FUNCTIONAL| J.P.Perdew, K.Burke, M.Ernzerhof, Phys. Rev. Letter, vol. 77, n 18,
 FUNCTIONAL|  pp. 3865-3868, (1996) {spin polarized}                            


 QS| Method:                                                                 GPW
 QS| Density plane wave grid type                        NON-SPHERICAL FULLSPACE
 QS| Number of grid levels:                                                    4
 QS| Density cutoff [a.u.]:                                                300.0
 QS| Multi grid cutoff [a.u.]: 1) grid level                               300.0
 QS|                           2) grid level                               100.0
 QS|                           3) grid level                                33.3
 QS|                           4) grid level                                11.1
 QS| Grid level progression factor:                                          3.0
 QS| Relative density cutoff [a.u.]:                                        20.0
 QS| Interaction thresholds: eps_pgf_orb:                                1.0E-06
 QS|                         eps_filter_matrix:                          0.0E+00
 QS|                         eps_core_charge:                            1.0E-14
 QS|                         eps_rho_gspace:                             1.0E-12
 QS|                         eps_rho_rspace:                             1.0E-12
 QS|                         eps_gvg_rspace:                             1.0E-06
 QS|                         eps_ppl:                                    1.0E-02
 QS|                         eps_ppnl:                                   1.0E-08


 ATOMIC KIND INFORMATION

  1. Atomic kind: Ti                                    Number of atoms:      64

     Orbital Basis Set                                    DZVP-MOLOPT-SR-GTH-q12

       Number of orbital shell sets:                                           1
       Number of orbital shells:                                               8
       Number of primitive Cartesian functions:                                6
       Number of Cartesian basis functions:                                   31
       Number of spherical basis functions:                                   26
       Norm type:                                                              2

       Normalised Cartesian orbitals:

                        Set   Shell   Orbital            Exponent    Coefficient

                          1       1    2s                7.884570       0.015554
                                                         3.894698       0.963603
                                                         1.513589      -0.631435
                                                         0.596768      -0.343022
                                                         0.222222      -0.006534
                                                         0.077078       0.007652

                          1       2    3s                7.884570      -0.009340
                                                         3.894698       0.212624
                                                         1.513589      -0.258368
                                                         0.596768      -0.226206
                                                         0.222222       0.039438
                                                         0.077078       0.107179

                          1       3    4s                7.884570       0.276563
                                                         3.894698       0.105452
                                                         1.513589       0.085149
                                                         0.596768       0.882541
                                                         0.222222      -0.696223
                                                         0.077078       0.156638

                          1       4    3px               7.884570      -2.034794
                                                         3.894698       0.782008
                                                         1.513589       1.253903
                                                         0.596768       0.347823
                                                         0.222222       0.016778
                                                         0.077078      -0.000433
                          1       4    3py               7.884570      -2.034794
                                                         3.894698       0.782008
                                                         1.513589       1.253903
                                                         0.596768       0.347823
                                                         0.222222       0.016778
                                                         0.077078      -0.000433
                          1       4    3pz               7.884570      -2.034794
                                                         3.894698       0.782008
                                                         1.513589       1.253903
                                                         0.596768       0.347823
                                                         0.222222       0.016778
                                                         0.077078      -0.000433

                          1       5    4px               7.884570       0.376572
                                                         3.894698      -0.182875
                                                         1.513589      -0.474776
                                                         0.596768      -0.081757
                                                         0.222222       0.064432
                                                         0.077078       0.047279
                          1       5    4py               7.884570       0.376572
                                                         3.894698      -0.182875
                                                         1.513589      -0.474776
                                                         0.596768      -0.081757
                                                         0.222222       0.064432
                                                         0.077078       0.047279
                          1       5    4pz               7.884570       0.376572
                                                         3.894698      -0.182875
                                                         1.513589      -0.474776
                                                         0.596768      -0.081757
                                                         0.222222       0.064432
                                                         0.077078       0.047279

                          1       6    4dx2              7.884570       3.047350
                                                         3.894698       3.289529
                                                         1.513589       1.060616
                                                         0.596768       0.249930
                                                         0.222222       0.038806
                                                         0.077078       0.002319
                          1       6    4dxy              7.884570       5.278165
                                                         3.894698       5.697631
                                                         1.513589       1.837041
                                                         0.596768       0.432892
                                                         0.222222       0.067214
                                                         0.077078       0.004017
                          1       6    4dxz              7.884570       5.278165
                                                         3.894698       5.697631
                                                         1.513589       1.837041
                                                         0.596768       0.432892
                                                         0.222222       0.067214
                                                         0.077078       0.004017
                          1       6    4dy2              7.884570       3.047350
                                                         3.894698       3.289529
                                                         1.513589       1.060616
                                                         0.596768       0.249930
                                                         0.222222       0.038806
                                                         0.077078       0.002319
                          1       6    4dyz              7.884570       5.278165
                                                         3.894698       5.697631
                                                         1.513589       1.837041
                                                         0.596768       0.432892
                                                         0.222222       0.067214
                                                         0.077078       0.004017
                          1       6    4dz2              7.884570       3.047350
                                                         3.894698       3.289529
                                                         1.513589       1.060616
                                                         0.596768       0.249930
                                                         0.222222       0.038806
                                                         0.077078       0.002319

                          1       7    5dx2              7.884570      -2.119015
                                                         3.894698      -1.237751
                                                         1.513589      -0.746777
                                                         0.596768      -0.071514
                                                         0.222222       0.004086
                                                         0.077078       0.017595
                          1       7    5dxy              7.884570      -3.670241
                                                         3.894698      -2.143848
                                                         1.513589      -1.293455
                                                         0.596768      -0.123865
                                                         0.222222       0.007077
                                                         0.077078       0.030475
                          1       7    5dxz              7.884570      -3.670241
                                                         3.894698      -2.143848
                                                         1.513589      -1.293455
                                                         0.596768      -0.123865
                                                         0.222222       0.007077
                                                         0.077078       0.030475
                          1       7    5dy2              7.884570      -2.119015
                                                         3.894698      -1.237751
                                                         1.513589      -0.746777
                                                         0.596768      -0.071514
                                                         0.222222       0.004086
                                                         0.077078       0.017595
                          1       7    5dyz              7.884570      -3.670241
                                                         3.894698      -2.143848
                                                         1.513589      -1.293455
                                                         0.596768      -0.123865
                                                         0.222222       0.007077
                                                         0.077078       0.030475
                          1       7    5dz2              7.884570      -2.119015
                                                         3.894698      -1.237751
                                                         1.513589      -0.746777
                                                         0.596768      -0.071514
                                                         0.222222       0.004086
                                                         0.077078       0.017595

                          1       8    5fx3              7.884570      -0.342058
                                                         3.894698       0.375798
                                                         1.513589      -0.706469
                                                         0.596768      -0.229994
                                                         0.222222      -0.012723
                                                         0.077078       0.003932
                          1       8    5fx2y             7.884570      -0.764866
                                                         3.894698       0.840310
                                                         1.513589      -1.579712
                                                         0.596768      -0.514282
                                                         0.222222      -0.028450
                                                         0.077078       0.008792
                          1       8    5fx2z             7.884570      -0.764866
                                                         3.894698       0.840310
                                                         1.513589      -1.579712
                                                         0.596768      -0.514282
                                                         0.222222      -0.028450
                                                         0.077078       0.008792
                          1       8    5fxy2             7.884570      -0.764866
                                                         3.894698       0.840310
                                                         1.513589      -1.579712
                                                         0.596768      -0.514282
                                                         0.222222      -0.028450
                                                         0.077078       0.008792
                          1       8    5fxyz             7.884570      -1.324787
                                                         3.894698       1.455460
                                                         1.513589      -2.736142
                                                         0.596768      -0.890763
                                                         0.222222      -0.049276
                                                         0.077078       0.015229
                          1       8    5fxz2             7.884570      -0.764866
                                                         3.894698       0.840310
                                                         1.513589      -1.579712
                                                         0.596768      -0.514282
                                                         0.222222      -0.028450
                                                         0.077078       0.008792
                          1       8    5fy3              7.884570      -0.342058
                                                         3.894698       0.375798
                                                         1.513589      -0.706469
                                                         0.596768      -0.229994
                                                         0.222222      -0.012723
                                                         0.077078       0.003932
                          1       8    5fy2z             7.884570      -0.764866
                                                         3.894698       0.840310
                                                         1.513589      -1.579712
                                                         0.596768      -0.514282
                                                         0.222222      -0.028450
                                                         0.077078       0.008792
                          1       8    5fyz2             7.884570      -0.764866
                                                         3.894698       0.840310
                                                         1.513589      -1.579712
                                                         0.596768      -0.514282
                                                         0.222222      -0.028450
                                                         0.077078       0.008792
                          1       8    5fz3              7.884570      -0.342058
                                                         3.894698       0.375798
                                                         1.513589      -0.706469
                                                         0.596768      -0.229994
                                                         0.222222      -0.012723
                                                         0.077078       0.003932

       Atomic covalent radius [Angstrom]:                                  1.320

       Atomic van der Waals radius [Angstrom]:                             1.760

     GTH Potential information for                                   GTH-PBE-q12

       Description:                       Goedecker-Teter-Hutter pseudopotential
                                           Goedecker et al., PRB 54, 1703 (1996)
                                          Hartwigsen et al., PRB 58, 3641 (1998)
                                                      Krack, TCA 114, 145 (2005)

       Gaussian exponent of the core charge distribution:               3.462604
       Electronic configuration (s p d ...):                           4   6   2

       Parameters of the local part of the GTH pseudopotential:

                          rloc        C1          C2          C3          C4
                        0.380000    8.711442   -0.700287

       Parameters of the non-local part of the GTH pseudopotential:

                   l      r(l)      h(i,j,l)

                   0    0.337771    2.575264    3.692971
                                    3.692971   -4.767605
                   1    0.242531   -4.630541    8.870875
                                    8.870875  -10.496161
                   2    0.243317   -9.406653

  2. Atomic kind: O                                     Number of atoms:     128

     Orbital Basis Set                                     DZVP-MOLOPT-SR-GTH-q6

       Number of orbital shell sets:                                           1
       Number of orbital shells:                                               5
       Number of primitive Cartesian functions:                                5
       Number of Cartesian basis functions:                                   14
       Number of spherical basis functions:                                   13
       Norm type:                                                              2

       Normalised Cartesian orbitals:

                        Set   Shell   Orbital            Exponent    Coefficient

                          1       1    2s               10.389228       0.396646
                                                         3.849621       0.208811
                                                         1.388401      -0.301641
                                                         0.496955      -0.274061
                                                         0.162492      -0.033677

                          1       2    3s               10.389228       0.303673
                                                         3.849621       0.240943
                                                         1.388401      -0.313066
                                                         0.496955      -0.043055
                                                         0.162492       0.213991

                          1       3    3px              10.389228      -1.530415
                                                         3.849621      -1.371928
                                                         1.388401      -0.761951
                                                         0.496955      -0.253695
                                                         0.162492      -0.035541
                          1       3    3py              10.389228      -1.530415
                                                         3.849621      -1.371928
                                                         1.388401      -0.761951
                                                         0.496955      -0.253695
                                                         0.162492      -0.035541
                          1       3    3pz              10.389228      -1.530415
                                                         3.849621      -1.371928
                                                         1.388401      -0.761951
                                                         0.496955      -0.253695
                                                         0.162492      -0.035541

                          1       4    4px              10.389228      -0.565392
                                                         3.849621      -0.038231
                                                         1.388401      -0.382373
                                                         0.496955       0.179070
                                                         0.162492       0.122714
                          1       4    4py              10.389228      -0.565392
                                                         3.849621      -0.038231
                                                         1.388401      -0.382373
                                                         0.496955       0.179070
                                                         0.162492       0.122714
                          1       4    4pz              10.389228      -0.565392
                                                         3.849621      -0.038231
                                                         1.388401      -0.382373
                                                         0.496955       0.179070
                                                         0.162492       0.122714

                          1       5    4dx2             10.389228       1.867377
                                                         3.849621       0.670994
                                                         1.388401       1.353441
                                                         0.496955       0.273538
                                                         0.162492       0.006620
                          1       5    4dxy             10.389228       3.234392
                                                         3.849621       1.162195
                                                         1.388401       2.344229
                                                         0.496955       0.473781
                                                         0.162492       0.011466
                          1       5    4dxz             10.389228       3.234392
                                                         3.849621       1.162195
                                                         1.388401       2.344229
                                                         0.496955       0.473781
                                                         0.162492       0.011466
                          1       5    4dy2             10.389228       1.867377
                                                         3.849621       0.670994
                                                         1.388401       1.353441
                                                         0.496955       0.273538
                                                         0.162492       0.006620
                          1       5    4dyz             10.389228       3.234392
                                                         3.849621       1.162195
                                                         1.388401       2.344229
                                                         0.496955       0.473781
                                                         0.162492       0.011466
                          1       5    4dz2             10.389228       1.867377
                                                         3.849621       0.670994
                                                         1.388401       1.353441
                                                         0.496955       0.273538
                                                         0.162492       0.006620

       Atomic covalent radius [Angstrom]:                                  0.730

       Atomic van der Waals radius [Angstrom]:                             1.520

     GTH Potential information for                                    GTH-PBE-q6

       Description:                       Goedecker-Teter-Hutter pseudopotential
                                           Goedecker et al., PRB 54, 1703 (1996)
                                          Hartwigsen et al., PRB 58, 3641 (1998)
                                                      Krack, TCA 114, 145 (2005)

       Gaussian exponent of the core charge distribution:               8.360253
       Electronic configuration (s p d ...):                               2   4

       Parameters of the local part of the GTH pseudopotential:

                          rloc        C1          C2          C3          C4
                        0.244554  -16.667215    2.487311

       Parameters of the non-local part of the GTH pseudopotential:

                   l      r(l)      h(i,j,l)

                   0    0.220956   18.337458
                   1    0.211332

     A DFT+U correction is applied to atoms of this atomic kind:
       Angular quantum momentum number L:                                      1
       U(eff) = (U - J) value in [eV]:                                     5.000


 MOLECULE KIND INFORMATION


 All atoms are their own molecule, skipping detailed information


 TOTAL NUMBERS AND MAXIMUM NUMBERS

  Total number of            - Atomic kinds:                                   2
                             - Atoms:                                        192
                             - Shell sets:                                   192
                             - Shells:                                      1152
                             - Primitive Cartesian functions:               1024
                             - Cartesian basis functions:                   3776
                             - Spherical basis functions:                   3328

  Maximum angular momentum of- Orbital basis functions:                        3
                             - Local part of the GTH pseudopotential:          2
                             - Non-local part of the GTH pseudopotential:      3


 MODULE QUICKSTEP: ATOMIC COORDINATES IN ANGSTROM

   Atom Kind Element         X             Y             Z       Z(eff)     Mass
      1    1 Ti   22      0.000810      0.000800     -0.000000  12.0000  47.8670
      2    1 Ti   22      1.888370      1.888377      4.807507  12.0000  47.8670
      3    1 Ti   22      0.000791      1.888361      2.402073  12.0000  47.8670
      4    1 Ti   22      1.888373      0.000789      7.212944  12.0000  47.8670
      5    1 Ti   22      0.000804      3.776017      0.003051  12.0000  47.8670
      6    1 Ti   22      1.888386     13.237832      4.805778  12.0000  47.8670
      7    1 Ti   22     11.350315      1.888364      2.403682  12.0000  47.8670
      8    1 Ti   22      5.669319      0.000827      7.216994  12.0000  47.8670
      9    1 Ti   22      1.888394      3.776028      7.209872  12.0000  47.8670
     10    1 Ti   22      0.000811     13.237798      2.403812  12.0000  47.8670
     11    1 Ti   22      5.669339      1.888462      4.803435  12.0000  47.8670
     12    1 Ti   22     11.350299      0.000782     -0.001617  12.0000  47.8670
     13    1 Ti   22      3.776022      0.000811     -0.003045  12.0000  47.8670
     14    1 Ti   22     13.237830      1.888381      4.809241  12.0000  47.8670
     15    1 Ti   22     13.237810      0.000811      7.211220  12.0000  47.8670
     16    1 Ti   22      3.776032      1.888401      2.405147  12.0000  47.8670
     17    1 Ti   22      1.888460      5.669344      4.811582  12.0000  47.8670
     18    1 Ti   22      0.000783     11.350306      0.001610  12.0000  47.8670
     19    1 Ti   22      0.000828      5.669319      2.398019  12.0000  47.8670
     20    1 Ti   22      1.888369     11.350309      7.211336  12.0000  47.8670
     21    1 Ti   22      0.000827      7.569724      0.005684  12.0000  47.8670
     22    1 Ti   22      1.888413      9.462850      4.808805  12.0000  47.8670
     23    1 Ti   22      7.569720      1.888450      2.407779  12.0000  47.8670
     24    1 Ti   22      9.462840      0.000805      7.214225  12.0000  47.8670
     25    1 Ti   22      1.888449      7.569713      7.207244  12.0000  47.8670
     26    1 Ti   22      0.000807      9.462841      2.400800  12.0000  47.8670
     27    1 Ti   22      9.462849      1.888418      4.806214  12.0000  47.8670
     28    1 Ti   22      7.569718      0.000829     -0.005682  12.0000  47.8670
     29    1 Ti   22      3.776056      3.776064     -0.000002  12.0000  47.8670
     30    1 Ti   22     13.237819     13.237823      4.807518  12.0000  47.8670
     31    1 Ti   22     11.350233      5.669334      2.399612  12.0000  47.8670
     32    1 Ti   22      5.669338     11.350220      7.215406  12.0000  47.8670
     33    1 Ti   22     13.237802      3.776027      7.208176  12.0000  47.8670
     34    1 Ti   22      3.776031     13.237802      2.406852  12.0000  47.8670
     35    1 Ti   22      5.669341      5.669346      4.807506  12.0000  47.8670
     36    1 Ti   22     11.350307     11.350311     -0.000000  12.0000  47.8670
     37    1 Ti   22     11.350311     13.237823      2.405422  12.0000  47.8670
     38    1 Ti   22      5.669341      3.776126      7.213995  12.0000  47.8670
     39    1 Ti   22      3.776024     11.350283     -0.001460  12.0000  47.8670
     40    1 Ti   22     13.237795      5.669327      4.813290  12.0000  47.8670
     41    1 Ti   22      5.669334     13.237795      4.801734  12.0000  47.8670
     42    1 Ti   22     11.350270      3.776021      0.001458  12.0000  47.8670
     43    1 Ti   22     13.237825     11.350299      7.209602  12.0000  47.8670
     44    1 Ti   22      3.776125      5.669343      2.401024  12.0000  47.8670
     45    1 Ti   22      3.776121      7.569702      0.002678  12.0000  47.8670
     46    1 Ti   22     13.237819      9.462851      4.810512  12.0000  47.8670
     47    1 Ti   22      7.569709      5.669337      2.403701  12.0000  47.8670
     48    1 Ti   22      9.462841     11.350273      7.212627  12.0000  47.8670
     49    1 Ti   22     13.237792      7.569724      7.205540  12.0000  47.8670
     50    1 Ti   22      3.776061      9.462801      2.403846  12.0000  47.8670
     51    1 Ti   22      9.462743      5.669361      4.810335  12.0000  47.8670
     52    1 Ti   22      7.569713     11.350241     -0.004088  12.0000  47.8670
     53    1 Ti   22     11.350279      9.462836      2.402385  12.0000  47.8670
     54    1 Ti   22      5.669335      7.569700      7.211315  12.0000  47.8670
     55    1 Ti   22      5.669359      9.462746      4.804679  12.0000  47.8670
     56    1 Ti   22     11.350231      7.569711      0.004084  12.0000  47.8670
     57    1 Ti   22      9.462796      3.776060      7.211169  12.0000  47.8670
     58    1 Ti   22      7.569730     13.237793      2.409484  12.0000  47.8670
     59    1 Ti   22      7.569692      3.776122     -0.002678  12.0000  47.8670
     60    1 Ti   22      9.462853     13.237829      4.804510  12.0000  47.8670
     61    1 Ti   22      7.569703      7.569709      0.000001  12.0000  47.8670
     62    1 Ti   22      9.462820      9.462822      4.807507  12.0000  47.8670
     63    1 Ti   22      7.569700      9.462742      2.406521  12.0000  47.8670
     64    1 Ti   22      9.462738      7.569700      7.208497  12.0000  47.8670
     65    2 O     8      0.000921      0.001576      1.991360   6.0000  15.9994
     66    2 O     8      1.884857      1.887539      6.799230   6.0000  15.9994
     67    2 O     8      0.001565      1.884823      4.395527   6.0000  15.9994
     68    2 O     8      1.887562      0.000915      9.202562   6.0000  15.9994
     69    2 O     8      1.884824      0.001564      5.219495   6.0000  15.9994
     70    2 O     8      0.000916      1.887561      0.412460   6.0000  15.9994
     71    2 O     8      1.887539      1.884859      2.815789   6.0000  15.9994
     72    2 O     8      0.001579      0.000920      7.623658   6.0000  15.9994
     73    2 O     8      0.000948      3.775977      1.989323   6.0000  15.9994
     74    2 O     8      1.884824     13.237012      6.799278   6.0000  15.9994
     75    2 O     8     11.351146      1.884854      4.395537   6.0000  15.9994
     76    2 O     8      5.672149      0.000892      9.203887   6.0000  15.9994
     77    2 O     8      1.884951      3.775942      5.221499   6.0000  15.9994
     78    2 O     8      0.000920     13.237000      0.412398   6.0000  15.9994
     79    2 O     8      5.672131      1.884948      2.814548   6.0000  15.9994
     80    2 O     8     11.351125      0.000914      7.623660   6.0000  15.9994
     81    2 O     8      3.775979      0.000948      7.625693   6.0000  15.9994
     82    2 O     8     13.237013      1.884824      2.815741   6.0000  15.9994
     83    2 O     8     13.237002      0.000920      9.202619   6.0000  15.9994
     84    2 O     8      3.775946      1.884953      4.393517   6.0000  15.9994
     85    2 O     8      1.884945      5.672121      6.800472   6.0000  15.9994
     86    2 O     8      0.000914     11.351126      1.991361   6.0000  15.9994
     87    2 O     8      0.000891      5.672153      0.411134   6.0000  15.9994
     88    2 O     8      1.884855     11.351145      5.219483   6.0000  15.9994
     89    2 O     8      0.000891      7.566942      1.992635   6.0000  15.9994
     90    2 O     8      1.884950      9.462867      6.797344   6.0000  15.9994
     91    2 O     8      7.566969      1.884944      4.396734   6.0000  15.9994
     92    2 O     8      9.462837      0.000947      9.200657   6.0000  15.9994
     93    2 O     8      1.884944      7.566965      5.218289   6.0000  15.9994
     94    2 O     8      0.000948      9.462834      0.414365   6.0000  15.9994
     95    2 O     8      9.462866      1.884951      2.817676   6.0000  15.9994
     96    2 O     8      7.566945      0.000892      7.622388   6.0000  15.9994
     97    2 O     8      3.769775      0.001566      1.991796   6.0000  15.9994
     98    2 O     8     13.237567      1.887561      6.798800   6.0000  15.9994
     99    2 O     8      0.001583      5.655892      4.395098   6.0000  15.9994
    100    2 O     8      1.887538     11.353699      9.202988   6.0000  15.9994
    101    2 O     8     13.237564      0.001579      5.219906   6.0000  15.9994
    102    2 O     8      3.769876      1.887578      0.412045   6.0000  15.9994
    103    2 O     8      1.887695      5.656142      2.816239   6.0000  15.9994
    104    2 O     8      0.001564     11.353730      7.623248   6.0000  15.9994
    105    2 O     8     11.353699      1.887539      0.412031   6.0000  15.9994
    106    2 O     8      5.655888      0.001584      5.219920   6.0000  15.9994
    107    2 O     8      5.656147      1.887694      6.798778   6.0000  15.9994
    108    2 O     8     11.353729      0.001564      1.991771   6.0000  15.9994
    109    2 O     8      1.887577      3.769876      9.202976   6.0000  15.9994
    110    2 O     8      0.001578     13.237562      4.395112   6.0000  15.9994
    111    2 O     8      0.001566      3.769775      7.623222   6.0000  15.9994
    112    2 O     8      1.887561     13.237567      2.816218   6.0000  15.9994
    113    2 O     8      3.770016      3.775973      1.989822   6.0000  15.9994
    114    2 O     8     13.237563     13.237003      6.798861   6.0000  15.9994
    115    2 O     8     11.350991      5.656118      4.395085   6.0000  15.9994
    116    2 O     8      5.672124     11.353614      9.204228   6.0000  15.9994
    117    2 O     8     13.237536      3.775979      5.221946   6.0000  15.9994
    118    2 O     8      3.769777     13.237010      0.411959   6.0000  15.9994
    119    2 O     8      5.672174      5.656553      2.814680   6.0000  15.9994
    120    2 O     8     11.351146     11.353701      7.623234   6.0000  15.9994
    121    2 O     8     11.353732     13.237010      0.411986   6.0000  15.9994
    122    2 O     8      5.656335      3.776090      5.221758   6.0000  15.9994
    123    2 O     8      3.775946     11.353606      7.625250   6.0000  15.9994
    124    2 O     8     13.236995      5.655904      2.816167   6.0000  15.9994
    125    2 O     8      5.655910     13.236998      6.798847   6.0000  15.9994
    126    2 O     8     11.353606      3.775942      1.989769   6.0000  15.9994
    127    2 O     8     13.237011     11.353731      9.203035   6.0000  15.9994
    128    2 O     8      3.776085      5.656338      4.393262   6.0000  15.9994
    129    2 O     8      5.656555      5.672180      6.800344   6.0000  15.9994
    130    2 O     8     11.353701     11.351147      1.991786   6.0000  15.9994
    131    2 O     8     13.237011      3.769774      9.203060   6.0000  15.9994
    132    2 O     8      3.775977     13.237538      4.393073   6.0000  15.9994
    133    2 O     8     11.353614      5.672123      0.410793   6.0000  15.9994
    134    2 O     8      5.656111     11.350991      5.219933   6.0000  15.9994
    135    2 O     8      3.775979      3.770017      7.625201   6.0000  15.9994
    136    2 O     8     13.237001     13.237562      2.816158   6.0000  15.9994
    137    2 O     8     13.237569     11.351124      5.219910   6.0000  15.9994
    138    2 O     8      3.770055      5.672108      0.410733   6.0000  15.9994
    139    2 O     8      5.672155     13.237589      2.814890   6.0000  15.9994
    140    2 O     8     11.351106      3.769869      7.623250   6.0000  15.9994
    141    2 O     8      3.769868     11.351110      1.991771   6.0000  15.9994
    142    2 O     8     13.237592      5.672150      6.800131   6.0000  15.9994
    143    2 O     8     11.351126     13.237569      4.395114   6.0000  15.9994
    144    2 O     8      5.672116      3.770055      9.204288   6.0000  15.9994
    145    2 O     8      3.770051      7.566979      1.993034   6.0000  15.9994
    146    2 O     8     13.237535      9.462835      6.796897   6.0000  15.9994
    147    2 O     8      7.566912      5.656532      4.396603   6.0000  15.9994
    148    2 O     8      9.462865     11.353611      9.201101   6.0000  15.9994
    149    2 O     8     13.237592      7.566938      5.218634   6.0000  15.9994
    150    2 O     8      3.770011      9.462833      0.413871   6.0000  15.9994
    151    2 O     8      9.462717      5.656340      2.817947   6.0000  15.9994
    152    2 O     8      7.566964     11.353615      7.622042   6.0000  15.9994
    153    2 O     8     11.353611      9.462868      0.413919   6.0000  15.9994
    154    2 O     8      5.656528      7.566905      5.218416   6.0000  15.9994
    155    2 O     8      5.656343      9.462716      6.797070   6.0000  15.9994
    156    2 O     8     11.353615      7.566968      1.992976   6.0000  15.9994
    157    2 O     8      9.462831      3.770012      9.201148   6.0000  15.9994
    158    2 O     8      7.566937     13.237594      4.396392   6.0000  15.9994
    159    2 O     8      7.566976      3.770055      7.621984   6.0000  15.9994
    160    2 O     8      9.462834     13.237536      2.818128   6.0000  15.9994
    161    2 O     8      7.582867      0.001580      1.991380   6.0000  15.9994
    162    2 O     8      9.468691      1.887577      6.799198   6.0000  15.9994
    163    2 O     8      0.001565      9.468784      4.395530   6.0000  15.9994
    164    2 O     8      1.887683      7.582643      9.202570   6.0000  15.9994
    165    2 O     8      9.468786      0.001566      5.219490   6.0000  15.9994
    166    2 O     8      7.582646      1.887683      0.412448   6.0000  15.9994
    167    2 O     8      1.887573      9.468689      2.815822   6.0000  15.9994
    168    2 O     8      0.001581      7.582868      7.623637   6.0000  15.9994
    169    2 O     8      7.582436      3.776078      1.989530   6.0000  15.9994
    170    2 O     8      9.468785     13.237012      6.799281   6.0000  15.9994
    171    2 O     8     11.351106      9.468697      4.395504   6.0000  15.9994
    172    2 O     8      5.672165      7.582246      9.204095   6.0000  15.9994
    173    2 O     8      9.468557      3.775972      5.221473   6.0000  15.9994
    174    2 O     8      7.582868     13.236999      0.412376   6.0000  15.9994
    175    2 O     8      5.672105      9.468526      2.814509   6.0000  15.9994
    176    2 O     8     11.351004      7.582657      7.623655   6.0000  15.9994
    177    2 O     8      3.776076      7.582436      7.625488   6.0000  15.9994
    178    2 O     8     13.237009      9.468784      2.815738   6.0000  15.9994
    179    2 O     8     13.236998      7.582867      9.202643   6.0000  15.9994
    180    2 O     8      3.775969      9.468554      4.393546   6.0000  15.9994
    181    2 O     8      9.468526      5.672114      6.800505   6.0000  15.9994
    182    2 O     8      7.582657     11.351006      1.991365   6.0000  15.9994
    183    2 O     8      7.582248      5.672172      0.410926   6.0000  15.9994
    184    2 O     8      9.468697     11.351107      5.219516   6.0000  15.9994
    185    2 O     8      7.582252      7.566921      1.992845   6.0000  15.9994
    186    2 O     8      9.468562      9.462839      6.797369   6.0000  15.9994
    187    2 O     8      7.566965      9.468529      4.396765   6.0000  15.9994
    188    2 O     8      9.462733      7.582447      9.200850   6.0000  15.9994
    189    2 O     8      9.468528      7.566984      5.218253   6.0000  15.9994
    190    2 O     8      7.582445      9.462731      0.414173   6.0000  15.9994
    191    2 O     8      9.462833      9.468562      2.817654   6.0000  15.9994
    192    2 O     8      7.566922      7.582256      7.622177   6.0000  15.9994



 SCF PARAMETERS         Density guess:                                   RESTART
                        --------------------------------------------------------
                        max_scf:                                              40
                        max_scf_history:                                       0
                        max_diis:                                              4
                        --------------------------------------------------------
                        eps_scf:                                        1.00E-06
                        eps_scf_history:                                0.00E+00
                        eps_diis:                                       1.00E-01
                        eps_eigval:                                     1.00E-05
                        --------------------------------------------------------
                        level_shift [a.u.]:                             0.000000
                        --------------------------------------------------------
                        Outer loop SCF in use 
                        No variables optimised in outer loop
                        eps_scf                                         1.00E-06
                        max_scf                                               60
                        No outer loop optimization
                        step_size                                       5.00E-01

 PW_GRID| Information for grid number                                          1
 PW_GRID| Grid distributed over                                   128 processors
 PW_GRID| Real space group dimensions                                   128    1
 PW_GRID| the grid is blocked:                                                NO
 PW_GRID| Cutoff [a.u.]                                                    300.0
 PW_GRID| spherical cutoff:                                                   NO
 PW_GRID|   Bounds   1           -112     112                Points:         225
 PW_GRID|   Bounds   2           -112     112                Points:         225
 PW_GRID|   Bounds   3            -72      71                Points:         144
 PW_GRID| Volume element (a.u.^3)  0.2035E-02     Volume (a.u.^3)     14833.7304
 PW_GRID| Grid span                                                    FULLSPACE
 PW_GRID|   Distribution                         Average         Max         Min
 PW_GRID|   G-Vectors                            56953.1       57150       56925
 PW_GRID|   G-Rays                                 253.1         254         253
 PW_GRID|   Real Space Points                    56953.1       64800       32400

 PW_GRID| Information for grid number                                          2
 PW_GRID| Number of the reference grid                                         1
 PW_GRID| Grid distributed over                                   128 processors
 PW_GRID| Real space group dimensions                                   128    1
 PW_GRID| the grid is blocked:                                                NO
 PW_GRID| Cutoff [a.u.]                                                    100.0
 PW_GRID| spherical cutoff:                                                   NO
 PW_GRID|   Bounds   1            -67      67                Points:         135
 PW_GRID|   Bounds   2            -67      67                Points:         135
 PW_GRID|   Bounds   3            -40      40                Points:          81
 PW_GRID| Volume element (a.u.^3)  0.1005E-01     Volume (a.u.^3)     14833.7304
 PW_GRID| Grid span                                                    FULLSPACE
 PW_GRID|   Distribution                         Average         Max         Min
 PW_GRID|   G-Vectors                            11533.0       12150       10800
 PW_GRID|   G-Rays                                  85.4          90          80
 PW_GRID|   Real Space Points                    11533.0       21870       10935

 PW_GRID| Information for grid number                                          3
 PW_GRID| Number of the reference grid                                         1
 PW_GRID| Grid distributed over                                   128 processors
 PW_GRID| Real space group dimensions                                     8   16
 PW_GRID| the grid is blocked:                                                NO
 PW_GRID| Cutoff [a.u.]                                                     33.3
 PW_GRID| spherical cutoff:                                                   NO
 PW_GRID|   Bounds   1            -37      37                Points:          75
 PW_GRID|   Bounds   2            -37      37                Points:          75
 PW_GRID|   Bounds   3            -24      23                Points:          48
 PW_GRID| Volume element (a.u.^3)  0.5494E-01     Volume (a.u.^3)     14833.7304
 PW_GRID| Grid span                                                    FULLSPACE
 PW_GRID|   Distribution                         Average         Max         Min
 PW_GRID|   G-Vectors                             2109.4        2475        1725
 PW_GRID|   G-Rays                                  28.1          33          23
 PW_GRID|   Real Space Points                     2109.4        2400        1728

 PW_GRID| Information for grid number                                          4
 PW_GRID| Number of the reference grid                                         1
 PW_GRID| Grid distributed over                                   128 processors
 PW_GRID| Real space group dimensions                                     8   16
 PW_GRID| the grid is blocked:                                                NO
 PW_GRID| Cutoff [a.u.]                                                     11.1
 PW_GRID| spherical cutoff:                                                   NO
 PW_GRID|   Bounds   1            -22      22                Points:          45
 PW_GRID|   Bounds   2            -22      22                Points:          45
 PW_GRID|   Bounds   3            -13      13                Points:          27
 PW_GRID| Volume element (a.u.^3)  0.2713         Volume (a.u.^3)     14833.7304
 PW_GRID| Grid span                                                    FULLSPACE
 PW_GRID|   Distribution                         Average         Max         Min
 PW_GRID|   G-Vectors                              427.1         585         270
 PW_GRID|   G-Rays                                   9.5          13           6
 PW_GRID|   Real Space Points                      427.1         486         270

 POISSON| Solver                                                        PERIODIC
 POISSON| Periodicity                                                        XYZ

 RS_GRID| Information for grid number                                          1
 RS_GRID|   Bounds   1           -112     112                Points:         225
 RS_GRID|   Bounds   2           -112     112                Points:         225
 RS_GRID|   Bounds   3            -72      71                Points:         144
 RS_GRID| Real space distribution over                                  8 groups
 RS_GRID| Real space distribution along direction                              1
 RS_GRID| Border size                                                         26
 RS_GRID| Real space distribution over                                 16 groups
 RS_GRID| Real space distribution along direction                              2
 RS_GRID| Border size                                                         26
 RS_GRID|   Distribution                         Average         Max         Min
 RS_GRID|   Planes                                  80.1          81          80
 RS_GRID|   Distribution                         Average         Max         Min
 RS_GRID|   Planes                                  66.1          67          66

 RS_GRID| Information for grid number                                          2
 RS_GRID|   Bounds   1            -67      67                Points:         135
 RS_GRID|   Bounds   2            -67      67                Points:         135
 RS_GRID|   Bounds   3            -40      40                Points:          81
 RS_GRID| Real space distribution over                                  8 groups
 RS_GRID| Real space distribution along direction                              1
 RS_GRID| Border size                                                         24
 RS_GRID| Real space distribution over                                 16 groups
 RS_GRID| Real space distribution along direction                              2
 RS_GRID| Border size                                                         24
 RS_GRID|   Distribution                         Average         Max         Min
 RS_GRID|   Planes                                  64.9          65          64
 RS_GRID|   Distribution                         Average         Max         Min
 RS_GRID|   Planes                                  56.4          57          56

 RS_GRID| Information for grid number                                          3
 RS_GRID|   Bounds   1            -37      37                Points:          75
 RS_GRID|   Bounds   2            -37      37                Points:          75
 RS_GRID|   Bounds   3            -24      23                Points:          48
 RS_GRID| Real space fully replicated
 RS_GRID| Group size                                                           1

 RS_GRID| Information for grid number                                          4
 RS_GRID|   Bounds   1            -22      22                Points:          45
 RS_GRID|   Bounds   2            -22      22                Points:          45
 RS_GRID|   Bounds   3            -13      13                Points:          27
 RS_GRID| Real space fully replicated
 RS_GRID| Group size                                                           1

 BFGS| Use rational function optimization for step estimation:                NO
 BFGS| Use model Hessian for initial guess:                                  YES
 BFGS| Restart Hessian:                                                       NO
 BFGS| Trust radius:                                                       0.472

 *******************************************************************************
 ***                     STARTING GEOMETRY OPTIMIZATION                      ***
 ***                                   BFGS                                  ***
 *******************************************************************************

 Spin 1

 Number of electrons:                                                        768
 Number of occupied orbitals:                                                768
 Number of molecular orbitals:                                               768

 Spin 2

 Number of electrons:                                                        768
 Number of occupied orbitals:                                                768
 Number of molecular orbitals:                                               768

 Number of orbital functions:                                               3328
 Number of independent orbital functions:                                   3328

 Extrapolation method: initial_guess

 *** WARNING in qs_initial_guess.F:306 :: User requested to restart the    ***
 *** wavefunction from the file named: tio2-RESTART.wfn. This file does    ***
 *** not exist. Please check the existence of the file or change properly  ***
 *** the value of the keyword WFN_RESTART_FILE_NAME. Calculation continues ***
 *** using ATOMIC GUESS.                                                   ***


 Atomic guess: The first density matrix is obtained in terms of atomic orbitals
               and electronic configurations assigned to each atomic kind

 Guess for atomic kind: Ti

 Electronic structure
    Total number of core electrons                                         10.00
    Total number of valence electrons                                      12.00
    Total number of electrons                                              22.00
    Multiplicity                                                   not specified
    S   [  2.00  2.00] 2.00  2.00
    P   [  6.00] 6.00
    D      2.00


 *******************************************************************************
                  Iteration          Convergence                     Energy [au]
 *******************************************************************************
                          1         2.59099                     -56.573945749309
                          2        0.737518                     -57.461623245624
                          3        0.123244E-01                 -57.676656834797
                          4        0.338536E-02                 -57.676690535970
                          5        0.252157E-03                 -57.676697146183
                          6        0.162704E-05                 -57.676697160103
                          7        0.846593E-06                 -57.676697160104

 Energy components [Hartree]           Total Energy ::          -57.676697160104
                                        Band Energy ::          -13.440549799540
                                     Kinetic Energy ::           25.008468428381
                                   Potential Energy ::          -82.685165588485
                                      Virial (-V/T) ::            3.306286661467
                                        Core Energy ::          -97.155838374470
                                          XC Energy ::           -6.919409696495
                                     Coulomb Energy ::           46.398550910862
                       Total Pseudopotential Energy ::         -122.259340742080
                       Local Pseudopotential Energy ::         -118.928992669456
                    Nonlocal Pseudopotential Energy ::           -3.330348072625
                                        Confinement ::            0.950339392289

 Orbital energies  State     L     Occupation   Energy[a.u.]          Energy[eV]

                       1     0          2.000      -2.312566          -62.928123
                       2     0          2.000      -0.123060           -3.348633

                       1     1          6.000      -1.385567          -37.703193

                       1     2          2.000      -0.127948           -3.481643


 Total Electron Density at R=0:                                         0.004726

 Guess for atomic kind: O

 Electronic structure
    Total number of core electrons                                          2.00
    Total number of valence electrons                                       6.00
    Total number of electrons                                               8.00
    Multiplicity                                                   not specified
    S   [  2.00] 2.00
    P      4.00


 *******************************************************************************
                  Iteration          Convergence                     Energy [au]
 *******************************************************************************
                          1        0.702811                     -15.577904332270
                          2        0.612408                     -15.588447180504
                          3        0.955344E-02                 -15.655871208406
                          4        0.223754E-02                 -15.655885053552
                          5        0.157183E-02                 -15.655885461027
                          6        0.124953E-02                 -15.655885607150
                          7        0.312011E-06                 -15.655885858066

 Energy components [Hartree]           Total Energy ::          -15.655885858066
                                        Band Energy ::           -2.983128125584
                                     Kinetic Energy ::           11.754765134683
                                   Potential Energy ::          -27.410650992749
                                      Virial (-V/T) ::            2.331875684345
                                        Core Energy ::          -26.153522949072
                                          XC Energy ::           -3.157392363346
                                     Coulomb Energy ::           13.655029454351
                       Total Pseudopotential Energy ::          -37.943026860963
                       Local Pseudopotential Energy ::          -39.220419683052
                    Nonlocal Pseudopotential Energy ::            1.277392822089
                                        Confinement ::            0.347387772086

 Orbital energies  State     L     Occupation   Energy[a.u.]          Energy[eV]

                       1     0          2.000      -0.861522          -23.443215

                       1     1          4.000      -0.315021           -8.572154


 Total Electron Density at R=0:                                         0.000093

 Spin 1
 Re-scaling the density matrix to get the right number of electrons for spin 1
                  # Electrons              Trace(P)               Scaling factor
                          768               768.001                        1.000

 Spin 2
 Re-scaling the density matrix to get the right number of electrons for spin 2
                  # Electrons              Trace(P)               Scaling factor
                          768               768.001                        1.000


 SCF WAVEFUNCTION OPTIMIZATION

  ----------------------------------- OT ---------------------------------------
  Minimizer      : DIIS                : direct inversion
                                         in the iterative subspace
                                         using   7 DIIS vectors
                                         safer DIIS on
  Preconditioner : FULL_SINGLE_INVERSE : inversion of 
                                         H + eS - 2*(Sc)(c^T*H*c+const)(Sc)^T
  Precond_solver : DEFAULT
  stepsize       :    0.08000000                  energy_gap     :    0.08000000
  eps_taylor     :   0.10000E-15                  max_taylor     :             4
  ----------------------------------- OT ---------------------------------------

  Step     Update method      Time    Convergence         Total energy    Change
  ------------------------------------------------------------------------------
     1 OT DIIS     0.80E-01    2.1     0.00998466     -5653.0140860514 -5.65E+03
     2 OT DIIS     0.80E-01    1.5     0.00722310     -5687.5752088928 -3.46E+01
     3 OT DIIS     0.80E-01    1.5     0.00461058     -5719.9056156577 -3.23E+01
     4 OT DIIS     0.80E-01    1.5     0.00365423     -5730.1387803532 -1.02E+01
     5 OT DIIS     0.80E-01    1.5     0.00266932     -5741.4766921174 -1.13E+01
     6 OT DIIS     0.80E-01    1.5     0.00219853     -5748.3460422655 -6.87E+00
     7 OT DIIS     0.80E-01    1.5     0.00184889     -5754.3806881659 -6.03E+00
     8 OT DIIS     0.80E-01    1.5     0.00147944     -5760.2764103152 -5.90E+00
     9 OT DIIS     0.80E-01    1.5     0.00127560     -5763.8972808272 -3.62E+00
    10 OT DIIS     0.80E-01    1.5     0.00099484     -5767.1428399561 -3.25E+00
    11 OT DIIS     0.80E-01    1.5     0.00090706     -5767.9627977472 -8.20E-01
    12 OT DIIS     0.80E-01    1.5     0.00073566     -5769.7403203506 -1.78E+00
    13 OT DIIS     0.80E-01    1.5     0.00060128     -5771.0919565060 -1.35E+00
    14 OT DIIS     0.80E-01    1.5     0.00049834     -5772.0144256053 -9.22E-01
    15 OT DIIS     0.80E-01    1.5     0.00044843     -5772.4852771935 -4.71E-01
    16 OT DIIS     0.80E-01    1.5     0.00037861     -5773.0159011785 -5.31E-01
    17 OT DIIS     0.80E-01    1.5     0.00035226     -5773.2369269122 -2.21E-01
    18 OT DIIS     0.80E-01    1.5     0.00030596     -5773.5606045754 -3.24E-01
    19 OT DIIS     0.80E-01    1.5     0.00026868     -5773.7831219572 -2.23E-01
    20 OT DIIS     0.80E-01    1.5     0.00025431     -5773.8901866027 -1.07E-01
    21 OT DIIS     0.80E-01    1.5     0.00022445     -5774.1033493060 -2.13E-01
    22 OT DIIS     0.80E-01    1.5     0.00019973     -5774.2501121856 -1.47E-01
    23 OT DIIS     0.80E-01    1.5     0.00019078     -5774.3401029438 -9.00E-02
    24 OT DIIS     0.80E-01    1.6     0.00017024     -5774.4208648410 -8.08E-02
    25 OT DIIS     0.80E-01    1.5     0.00015977     -5774.4904010274 -6.95E-02
    26 OT DIIS     0.80E-01    1.5     0.00014309     -5774.5587165619 -6.83E-02
    27 OT DIIS     0.80E-01    1.5     0.00013865     -5774.6124844278 -5.38E-02
    28 OT DIIS     0.80E-01    1.5     0.00013482     -5774.6245829865 -1.21E-02
    29 OT DIIS     0.80E-01    1.5     0.00014306     -5774.6656863668 -4.11E-02
    30 OT DIIS     0.80E-01    1.5     0.00013561     -5774.6752921639 -9.61E-03
    31 OT DIIS     0.80E-01    1.5     0.00011093     -5774.7352155369 -5.99E-02
    32 OT DIIS     0.80E-01    1.5     0.00010969     -5774.7641464693 -2.89E-02
    33 OT DIIS     0.80E-01    1.5     0.00009453     -5774.8062283463 -4.21E-02
    34 OT DIIS     0.80E-01    1.5     0.00008831     -5774.8283687088 -2.21E-02
    35 OT DIIS     0.80E-01    1.5     0.00007897     -5774.8645525832 -3.62E-02
    36 OT DIIS     0.80E-01    1.5     0.00007054     -5774.8880625509 -2.35E-02
    37 OT DIIS     0.80E-01    1.5     0.00006732     -5774.8977481359 -9.69E-03
    38 OT DIIS     0.80E-01    1.5     0.00007714     -5774.9133862584 -1.56E-02
    39 OT DIIS     0.80E-01    1.5     0.00006909     -5774.9188855442 -5.50E-03
    40 OT DIIS     0.80E-01    1.5     0.00005560     -5774.9267216284 -7.84E-03

  Leaving inner SCF loop after reaching    40 steps.


  Electronic density on regular grids:      -1535.9999999999        0.0000000001
  Core density on regular grids:             1535.9999999995       -0.0000000005
  Total charge density on r-space grids:       -0.0000000004
  Total charge density g-space grids:          -0.0000000004

  Overlap energy of the core charge distribution:               0.00000000000325
  Self energy of the core charge distribution:             -12156.89556134359555
  Core Hamiltonian energy:                                   3284.67585481096830
  Hartree energy:                                            4010.60276123498670
  Exchange-correlation energy:                               -926.58402537456914

  DFT+U energy:                                                13.27424904376779

  Total energy:                                             -5774.92672162843883

  outer SCF iter =    1 RMS gradient =   0.56E-04 energy =      -5774.9267216284

  ----------------------------------- OT ---------------------------------------
[...]
 flops    96 x    64 x    64         745713696768       0.0%    100.0%      0.0%     
 flops   416 x    64 x    32        1039918956544       0.0%    100.0%      0.0%     
 flops   416 x    32 x    64        1039918956544       0.0%    100.0%      0.0%     
 flops    96 x    32 x   208        1305105924096       0.0%    100.0%      0.0%     
 flops   416 x    32 x   208        1562277576704       0.0%    100.0%      0.0%     
 flops   416 x    64 x    64        2079837913088       0.0%    100.0%      0.0%     
 flops    13 x    32 x    13        2484430700544       0.0%    100.0%      0.0%     
 flops    26 x    32 x    26        2564573626368       0.0%    100.0%      0.0%     
 flops    26 x    32 x    13        2564573626368       0.0%    100.0%      0.0%     
 flops    13 x    32 x    26        2564573626368       0.0%    100.0%      0.0%     
 flops    96 x    64 x   208        2615937073152       0.0%    100.0%      0.0%     
 flops   416 x    64 x   208        3152908648448       0.0%    100.0%      0.0%     
 flops inhomo. stacks                    13371808     100.0%      0.0%      0.0%
 flops total                        27.670798E+12       0.0%    100.0%      0.0%
 flops max/rank                    288.463836E+09       0.0%    100.0%      0.0%
 matmuls inhomo. stacks                     19344     100.0%      0.0%      0.0%
 matmuls total                          667100528       0.0%    100.0%      0.0%
 number of processed stacks              17050928       0.1%     99.9%      0.0%
 average stack size                                     1.0      39.2       0.0
 marketing flops                    30.237698E+12
 -------------------------------------------------------------------------------
 # multiplications                          14663
 max memory usage/rank             376.094720E+06
 # max total images/rank                        2
 # max 3D layers                                1
 # MPI messages exchanged                54429056
 MPI messages size (bytes):
  total size                         4.970746E+12
  min size                           0.000000E+00
  max size                         692.224000E+03
  average size                      91.325234E+03
 MPI breakdown and total messages size (bytes):
             size <=      128            28647104                   690848
       128 < size <=     8192             2380720              13208241120
      8192 < size <=    32768             6232336             141978132080
     32768 < size <=   131072             7795456             605012774912
    131072 < size <=  4194304             9373440            4210578677760
   4194304 < size <= 16777216                   0                        0
  16777216 < size                               0                        0
 -------------------------------------------------------------------------------

 *** WARNING in dbcsr_mm.F:301 :: Using a non-square number of MPI ranks ***
 *** might lead to poor performance. Used ranks: 128 Suggested: 121 256  ***

 -------------------------------------------------------------------------------
 -                                                                             -
 -                      DBCSR MESSAGE PASSING PERFORMANCE                      -
 -                                                                             -
 -------------------------------------------------------------------------------
 ROUTINE             CALLS      AVE VOLUME [Bytes]
 MP_Bcast               50                     12.
 MP_Allreduce        74408                     14.
 MP_Alltoall         55977                  30093.
 MP_ISend           921708                  44988.
 MP_IRecv           919104                  44749.
 -------------------------------------------------------------------------------

 -------------------------------------------------------------------------------
 -                                                                             -
 -                                DBM STATISTICS                               -
 -                                                                             -
 -------------------------------------------------------------------------------
    M  x    N  x    K                                          COUNT     PERCENT
 -------------------------------------------------------------------------------

 -------------------------------------------------------------------------------
 -                                                                             -
 -                                GRID STATISTICS                              -
 -                                                                             -
 -------------------------------------------------------------------------------
 LP    KERNEL             BACKEND                              COUNT     PERCENT
 5     collocate ortho    CPU                               39809436      24.99%
 5     integrate ortho    CPU                               38814708      24.37%
 6     integrate ortho    CPU                               20819048      13.07%
 6     collocate ortho    CPU                               20366952      12.79%
 4     collocate ortho    CPU                               18187264      11.42%
 4     integrate ortho    CPU                               17471364      10.97%
 0     integrate general  CPU                                1966080       1.23%
 0     collocate general  CPU                                1105920       0.69%
 7     integrate ortho    CPU                                 641464       0.40%
 1     integrate general  CPU                                  98304       0.06%
 2     collocate ortho    CPU                                  12800       0.01%
 3     collocate ortho    CPU                                   7680       0.00%
 -------------------------------------------------------------------------------

 MEMORY| Estimated peak process memory [MiB]                                 359

 -------------------------------------------------------------------------------
 ----                             MULTIGRID INFO                            ----
 -------------------------------------------------------------------------------
 count for grid        1:        1830122          cutoff [a.u.]          300.00
 count for grid        2:        1603256          cutoff [a.u.]          100.00
 count for grid        3:        1769678          cutoff [a.u.]           33.33
 count for grid        4:        1728264          cutoff [a.u.]           11.11
 total gridlevel count  :        6931320

 -------------------------------------------------------------------------------
 -                                                                             -
 -                         MESSAGE PASSING PERFORMANCE                         -
 -                                                                             -
 -------------------------------------------------------------------------------

 ROUTINE             CALLS      AVE VOLUME [Bytes]
 MP_Group                4
 MP_Bcast            13235                  12746.
 MP_Allreduce        36155                    448.
 MP_Sync              1888
 MP_Alltoall          5385                2178639.
 MP_SendRecv         69596                  11544.
 MP_ISendRecv        64008                  11544.
 MP_Wait             96192
 MP_comm_split         832
 MP_ISend            57972                  79128.
 MP_IRecv            57752                  79418.
 MP_Write_All           30                 355816.
 -------------------------------------------------------------------------------


 -------------------------------------------------------------------------------
 -                                                                             -
 -                           R E F E R E N C E S                               -
 -                                                                             -
 -------------------------------------------------------------------------------
 
 CP2K version 2024.3, the CP2K developers group (2024).
 CP2K is freely available from https://www.cp2k.org/ .
 
 T. D. Kuehne, M. Iannuzzi, M. Del Ben, V. V. Rybkin, P. Seewald, F. Stein, T. 
 Laino, R. Z. Khaliullin, O. Schuett, F. Schiffmann, D. Golze, J. Wilhelm, S. 
 Chulkov, M. H. Bani-Hashemian, V. Weber, U. Borstnik, M. Taillefumier, A. S. 
 Jakobovits, A. Lazzaro, H. Pabst, T. Mueller, R. Schade, M. Guidon, S. 
 Andermatt, N. Holmberg, G. K. Schenter, A. Hehn, A. Bussy, F. Belleflamme, G. 
 Tabacchi, A. Gloess, M. Lass, I. Bethune, C. J. Mundy, C. Plessl, M. Watkins, 
 J. VandeVondele, M. Krack, J. Hutter.
 J. Chem. Phys. 152, 194103 (2020).
 CP2K: An electronic structure and molecular dynamics software package - 
 Quickstep: Efficient and accurate electronic structure calculations.
 https://doi.org/10.1063/5.0007045

 O. Schuett, P. Messmer, J. Hutter, J. VandeVondele.
 Electronic Structure Calculations on Graphics Processing Units, 173-190 (2016).
 GPU-Accelerated Sparse Matrix-Matrix Multiplication for Linear Scaling Density 
 Functional Theory.
 https://doi.org/10.1002/9781118670712.ch8

 A. Heinecke, G. Henry, M. Hutchinson, H. Pabst.
 Proceedings of Intl. Supercomputing Conference, 981-991 (2016).
 LIBXSMM: Accelerating Small Matrix Multiplications by Runtime Code Generation.
 https://doi.org/10.1109/SC.2016.83

 J. Hutter, M. Iannuzzi, F. Schiffmann, J. VandeVondele.
 WIREs Comput Mol Sci. 4, 15-25 (2014).
 CP2K: atomistic simulations of condensed matter systems.
 https://doi.org/10.1002/wcms.1159

 U. Borstnik, J. VandeVondele, V. Weber, J. Hutter.
 Parallel Comput. 40, 47-58 (2014).
 Sparse matrix multiplication: The distributed block-compressed sparse row 
 library.
 https://doi.org/10.1016/j.parco.2014.03.012

 A. Marek, V. Blum, R. Johanni, V. Havu, B. Lang, T. Auckenthaler, A. Heinecke, 
 H. Bungartz, H. Lederer.
 J. Phys. Condens. Matter 26, 213201 (2014).
 The ELPA library: scalable parallel eigenvalue solutions for electronic 
 structure theory and computational science.
 https://doi.org/10.1088/0953-8984/26/21/213201

 J. VandeVondele, J. Hutter.
 J. Chem. Phys. 127, 114105 (2007).
 Gaussian basis sets for accurate calculations on molecular systems in gas and 
 condensed phases.
 https://doi.org/10.1063/1.2770708

 T. D. Khne, M. Krack, F. R. Mohamed, M. Parrinello.
 Phys. Rev. Lett. 98, 066401 (2007).
 Efficient and accurate Car-Parrinello-like approach to Born-Oppenheimer 
 molecular dynamics.
 https://doi.org/10.1103/PhysRevLett.98.066401

 J. VandeVondele, M. Krack, F. Mohamed, M. Parrinello, T. Chassaing, J. Hutter.
 Comput. Phys. Commun. 167, 103-128 (2005).
 QUICKSTEP: Fast and accurate density functional calculations using a mixed 
 Gaussian and plane waves approach.
 https://doi.org/10.1016/j.cpc.2004.12.014

 M. Krack.
 Theor. Chem. Acc. 114, 145-152 (2005).
 Pseudopotentials for H to Kr optimized for gradient-corrected 
 exchange-correlation functionals.
 https://doi.org/10.1007/s00214-005-0655-y

 M. Frigo, S. G. Johnson.
 Proc. IEEE 93, 216-231 (2005).
 The design and implementation of FFTW3.
 https://doi.org/10.1109/JPROC.2004.840301

 J. Kolafa.
 J. Comput. Chem. 25, 335-342 (2004).
 Time-reversible always stable predictor-corrector method for molecular dynamics 
 of polarizable molecules.
 https://doi.org/10.1002/jcc.10385

 J. VandeVondele, J. Hutter.
 J. Chem. Phys. 118, 4365-4369 (2003).
 An efficient orbital transformation method for electronic structure 
 calculations.
 https://doi.org/10.1063/1.1543154

 C. Hartwigsen, S. Goedecker, J. Hutter.
 Phys. Rev. B 58, 3641-3662 (1998).
 Relativistic separable dual-space Gaussian pseudopotentials from H to Rn.
 https://doi.org/10.1103/PhysRevB.58.3641

 S. L. Dudarev, G. A. Botton, S. Y. Savrasov, C. J. Humphreys, A. P. Sutton.
 Phys. Rev. B 57, 1505-1509 (1998).
 Electron-energy-loss spectra and the structural stability of nickel oxide: An 
 LSDA+U study.
 https://doi.org/10.1103/PhysRevB.57.1505

 G. Lippert, J. Hutter, M. Parrinello.
 Mol. Phys. 92, 477-487 (1997).
 A hybrid Gaussian and plane wave density functional scheme.
 https://doi.org/10.1080/002689797170220

 S. L. Dudarev, D. N. Manh, A. P. Sutton.
 Philos. Mag. B 75, 613-628 (1997).
 Effect of Mott-Hubbard correlations on the electronic structure and structural 
 stability of uranium dioxide.
 https://doi.org/10.1080/13642819708202343

 S. Goedecker, M. Teter, J. Hutter.
 Phys. Rev. B 54, 1703-1710 (1996).
 Separable dual-space Gaussian pseudopotentials.
 https://doi.org/10.1103/PhysRevB.54.1703

 J. P. Perdew, K. Burke, M. Ernzerhof.
 Phys. Rev. Lett. 77, 3865-3868 (1996).
 Generalized gradient approximation made simple.
 https://doi.org/10.1103/PhysRevLett.77.3865


 -------------------------------------------------------------------------------
 -                                                                             -
 -                                T I M I N G                                  -
 -                                                                             -
 -------------------------------------------------------------------------------
 SUBROUTINE                       CALLS  ASD         SELF TIME        TOTAL TIME
                                MAXIMUM       AVERAGE  MAXIMUM  AVERAGE  MAXIMUM
 CP2K                                 1  1.0    0.077    0.087  245.072  245.078
 cp_geo_opt                           1  2.0    0.003    0.006  244.067  244.069
 geoopt_bfgs                          1  3.0    0.027    0.035  244.063  244.067
 cp_eval_at                           5  4.0    0.006    0.009  243.304  243.308
 qs_energies                          5  5.8    0.007    0.010  232.831  232.838
 qs_forces                            4  5.0    0.013    0.016  223.113  223.117
 scf_env_do_scf                       5  6.8    0.006    0.008  180.336  180.339
 scf_env_do_scf_inner_loop          122  7.9    0.008    0.028  170.668  170.893
 rebuild_ks_matrix                  126  9.8    0.002    0.003   90.997   91.225
 qs_ks_build_kohn_sham_matrix       126 10.8    0.033    0.039   90.995   91.223
 qs_ks_update_qs_env                129  8.9    0.002    0.003   86.623   86.843
 dbcsr_multiply_generic           14663 12.5    0.505    0.542   57.392   58.802
 sum_up_and_integrate               126 11.8    0.007    0.012   57.680   57.709
 integrate_v_rspace                 252 12.8    0.010    0.015   57.527   57.613
 qs_rho_update_rho_low              127  9.0    0.002    0.003   52.268   52.283
 calculate_rho_elec                 254 10.0    0.094    0.107   52.266   52.281
 scf_post_calculation_gpw             5  6.8    0.005    0.007   45.568   45.572
 grid_integrate_task_list           252 13.8   41.723   43.248   41.723   43.248
 multiply_cannon                  14663 13.5    2.871    3.096   37.919   43.224
 grid_collocate_task_list           254 11.0   37.825   39.356   37.825   39.356
 qs_scf_new_mos                     122  8.9    0.001    0.001   38.532   38.836
 qs_scf_loop_do_ot                  122  9.9    0.001    0.002   38.531   38.835
 multiply_cannon_loop             14663 14.5    1.034    1.132   31.352   36.121
 ot_scf_mini                        122 10.9    0.005    0.007   35.856   36.076
 fft_wrap_pw1pw2                   4273 14.1    0.083    0.099   28.123   31.587
 fft_wrap_pw1pw2_300               2695 15.6    1.065    1.176   26.113   29.573
 ot_mini                            788 10.1    0.012    0.015   27.868   28.150
 qs_vxc_create                      126 11.8    0.004    0.006   26.541   26.748
 xc_vxc_pw_create                   126 12.8    0.483    0.623   26.538   26.746
 fft3d_ps                          4273 16.1    8.416    9.280   22.127   26.139
 make_lumo_gpw                        5  7.8    0.002    0.002   25.942   25.945
 ot_eigensolver                      10  8.8    0.011    0.012   25.851   25.852
 mp_waitall_1                   1712672 16.6   17.105   23.770   17.105   23.770
 multiply_cannon_multrec         234608 15.5   12.397   21.134   12.447   21.183
 xc_pw_derive                      1512 14.8    0.013    0.016   17.930   21.014
 qs_ot_get_derivative               582 11.7    0.004    0.005   20.132   20.279
 multiply_cannon_metrocomm3      234608 15.5    0.565    0.626   12.413   20.169
 mp_alltoall_z22v                  4273 18.1   11.386   17.661   11.386   17.661
 qs_ot_get_p                        944 10.4    0.007    0.008   16.319   16.944
 write_available_results              5  7.8    0.002    0.004   15.192   15.208
 write_mo_free_results                5  8.8    0.545    0.566   15.008   15.026
 xc_rho_set_and_dset_create         126 13.8    0.432    0.705   13.784   14.604
 density_rs2pw                      254 11.0    0.016    0.019   13.076   14.414
 xc_pw_divergence                   252 13.8    0.006    0.008   11.855   14.293
 make_m2s                         29326 13.5    0.389    0.419   12.419   13.053
 potential_pw2rs                    252 13.8    0.019    0.022   12.850   12.941
 qs_ot_p2m_diag                     808 11.3    0.086    0.113   11.411   11.494
 qs_ot_get_derivative_diag          474 12.6    0.009    0.011   10.673   10.796
 yz_to_x                           1561 17.3    0.659    0.912    6.452   10.648
 make_images                      29326 14.5    0.762    0.828   10.067   10.611
 transfer_pw2rs                    1022 14.8    0.014    0.016    9.725    9.778
 transfer_rs2pw                    1106 11.8    0.019    0.026    8.385    9.751
 init_scf_loop                        7  7.9    0.004    0.005    9.480    9.489
 mp_waitany                       25776 15.2    6.961    8.957    6.961    8.957
 cp_dbcsr_syevd                     808 12.3    0.252    0.272    8.792    8.804
 cp_fm_redistribute_end             832 14.1    4.280    8.348    4.314    8.374
 x_to_yz                           1660 17.6    1.093    1.427    6.612    8.314
 cp_fm_diag_elpa                    186 14.5    0.001    0.002    8.222    8.248
 cp_fm_diag_elpa_base               186 15.5    3.800    7.618    3.888    7.803
 hirshfeld_integration               10  9.8    7.139    7.488    7.745    7.748
 mp_sum_l                         69732 13.5    4.465    7.287    4.465    7.287
 multiply_cannon_metrocomm4      219945 15.5    0.545    0.614    2.570    7.237
 apply_preconditioner_dbcsr         616 12.7    0.002    0.002    6.550    7.190
 apply_single                       616 13.7    0.002    0.002    6.548    7.188
 transfer_pw2rs_300                 266 15.6    3.317    3.522    6.786    7.125
 transfer_rs2pw_300                 284 12.8    2.045    2.756    5.597    6.953
 mp_irecv_dv                     469169 16.5    2.069    6.410    2.069    6.410
 build_core_hamiltonian_matrix_       4  6.0    0.000    0.000    4.852    5.886
 mp_alltoall_d11v                 12943 15.0    4.347    5.653    4.347    5.653
 mp_sum_d                         14290 13.9    3.449    5.268    3.449    5.268
 ot_diis_step                       122 12.9    0.027    0.029    4.964    4.968
 -------------------------------------------------------------------------------

 The number of warnings for this run is : 3
 
 -------------------------------------------------------------------------------
  **** **** ******  **  PROGRAM ENDED AT                 2025-06-12 11:13:17.100
 ***** ** ***  *** **   PROGRAM RAN ON                                 nid003483
 **    ****   ******    PROGRAM RAN BY                                    cahart
 ***** **    ** ** **   PROGRAM PROCESS ID                                125516
  **** **  *******  **  PROGRAM STOPPED IN /mnt/lustre/a2fs-work2/work/e05/e05/c
                                           ahart/postdoc2/work/group/tio2/anatas
                                           e/cell-441/geo-opt/mp-390/neutral/pbe
                                           -u-o/u-3.0-rs-5.0
