     192
 i =        6, E =     -5775.2667779472
Ti         0.0009663820        0.0009521952       -0.0000040741
Ti         1.8882870166        1.8882928321        4.8075129119
Ti         0.0009716277        1.8882350098        2.4020987465
Ti         1.8882644802        0.0009683478        7.2129109980
Ti         0.0009475799        3.7760799390        0.0029502572
Ti         1.8882916917       13.2376529469        4.8058318618
Ti        11.3504136033        1.8882403043        2.4036849034
Ti         5.6691722715        0.0009641955        7.2169544259
Ti         1.8882812390        3.7761086951        7.2099248384
Ti         0.0009793444       13.2375867991        2.4037903638
Ti         5.6692099794        1.8883653921        4.8034262964
Ti        11.3503761514        0.0009414896       -0.0015832389
Ti         3.7760930492        0.0009541817       -0.0029476722
Ti        13.2376512248        1.8882925785        4.8091798543
Ti        13.2376084089        0.0009935632        7.2112445482
Ti         3.7761079316        1.8882801548        2.4050944975
Ti         1.8883666921        5.6692246038        4.8115865097
Ti         0.0009409188       11.3503858576        0.0015675443
Ti         0.0009700139        5.6691624527        2.3980552330
Ti         1.8882604304       11.3504121771        7.2113388678
Ti         0.0009604111        7.5697645744        0.0056587040
Ti         1.8883197061        9.4627277843        4.8087392140
Ti         7.5697821309        1.8883322385        2.4077932759
Ti         9.4626846289        0.0009695830        7.2141081908
Ti         1.8883295646        7.5697807262        7.2072351207
Ti         0.0009717680        9.4626771526        2.4009106755
Ti         9.4627164901        1.8883292978        4.8062799721
Ti         7.5697552737        0.0009463807       -0.0056472968
Ti         3.7761090625        3.7761121294       -0.0000047111
Ti        13.2376326596       13.2376532764        4.8075190128
Ti        11.3503349990        5.6691757906        2.3995998464
Ti         5.6691902577       11.3503175113        7.2154124439
Ti        13.2376163296        3.7761252888        7.2082962705
Ti         3.7761134669       13.2376056062        2.4067266915
Ti         5.6692174805        5.6692203240        4.8075083302
Ti        11.3503829886       11.3503861665        0.0000005859
Ti        11.3504129027       13.2376079460        2.4053646664
Ti         5.6691949827        3.7761773603        7.2140442347
Ti         3.7760873743       11.3503683689       -0.0014104611
Ti        13.2376503155        5.6691948865        4.8132287176
Ti         5.6692009279       13.2376452244        4.8017946551
Ti        11.3503608077        3.7760807296        0.0014152384
Ti        13.2376134679       11.3504175274        7.2096604562
Ti         3.7761818715        5.6691843076        2.4009759147
Ti         3.7761631456        7.5697467579        0.0027279025
Ti        13.2376477352        9.4627188702        4.8103786200
Ti         7.5697757342        5.6691847864        2.4037088685
Ti         9.4626901586       11.3503802561        7.2125652398
Ti        13.2376155674        7.5698012459        7.2055920739
Ti         3.7761281976        9.4626592757        2.4038559513
Ti         9.4626433861        5.6692300613        4.8103919572
Ti         7.5697529848       11.3503209210       -0.0041065574
Ti        11.3503841947        9.4626901348        2.4024467107
Ti         5.6691878844        7.5697593860        7.2113161047
Ti         5.6692267468        9.4626429433        4.8046258625
Ti        11.3503164175        7.5697515214        0.0041001007
Ti         9.4626673923        3.7761256019        7.2111514557
Ti         7.5697870105       13.2376164665        2.4094328998
Ti         7.5697523846        3.7761557651       -0.0027296918
Ti         9.4627124616       13.2376631823        4.8046448294
Ti         7.5697490587        7.5697475960        0.0000049995
Ti         9.4627038735        9.4627055800        4.8075120459
Ti         7.5697565628        9.4626200468        2.4065820667
Ti         9.4626187200        7.5697659912        7.2084344044
O         0.0005130133        0.0015646380        1.9886524667
O         1.8844855567        1.8875388845        6.7962947815
O         0.0015639145        1.8843939992        4.3926271518
O         1.8875458550        0.0005883046        9.1998303527
O         1.8844009469        0.0015769741        5.2223907477
O         0.0005841002        1.8875346426        0.4151868710
O         1.8875376678        1.8845060047        2.8187367793
O         0.0015714924        0.0005109911        7.6263613774
O         0.0005894994        3.7757880324        1.9863427812
O         1.8844416152       13.2369928629        6.7963909928
O        11.3510974697        1.8844329807        4.3925760707
O         5.6721835422        0.0006210188        9.2008673067
O         1.8845724575        3.7757729272        5.2246499387
O         0.0005630977       13.2369780995        0.4150986191
O         5.6721638380        1.8846210026        2.8177363941
O        11.3510645620        0.0005294206        7.6264109032
O         3.7757992610        0.0005968470        7.6286766635
O        13.2369861246        1.8844628499        2.8186207133
O        13.2369691050        0.0005638756        9.1999300468
O         3.7757893041        1.8845780479        4.3903670124
O         1.8846125928        5.6721555058        6.7972764527
O         0.0005530341       11.3510587677        1.9885992210
O         0.0006163450        5.6721913559        0.4141560685
O         1.8844372671       11.3510961139        5.2224436015
O         0.0005768795        7.5668239373        1.9896384217
O         1.8846107748        9.4629966602        6.7941882022
O         7.5668645384        1.8845565891        4.3935641067
O         9.4629572949        0.0006325716        9.1976711473
O         1.8845764665        7.5668706110        5.2214561526
O         0.0006259176        9.4629501005        0.4173461884
O         9.4629942131        1.8846169502        2.8208311674
O         7.5668315114        0.0005835078        7.6253906130
O         3.7692187443        0.0015637521        1.9891422648
O        13.2379126591        1.8875547259        6.7960482280
O         0.0016124038        5.6559409445        4.3925958629
O         1.8875223764       11.3540888555        9.2000517881
O        13.2379052362        0.0015788054        5.2226369543
O         3.7693372665        1.8875623852        0.4147298602
O         1.8876455303        5.6561676121        2.8187578880
O         0.0015561531       11.3540599389        7.6261366973
O        11.3540812743        1.8875289208        0.4149812438
O         5.6559560770        0.0016067859        5.2224232566
O         5.6561527294        1.8876410347        6.7962564162
O        11.3540979459        0.0015434702        1.9888776314
O         1.8875536478        3.7693427166        9.2002952490
O         0.0015788865       13.2378844712        4.3923903418
O         0.0015685607        3.7692069517        7.6258752031
O         1.8875416887       13.2379357268        2.8189681526
O         3.7695143443        3.7757973037        1.9869323400
O        13.2379433949       13.2369926329        6.7961508903
O        11.3509795868        5.6560949231        4.3925392328
O         5.6721539451       11.3539606891        9.2010400107
O        13.2378246249        3.7758131674        5.2249452726
O         3.7692532065       13.2369691501        0.4145992471
O         5.6721890839        5.6565753810        2.8175055151
O        11.3510868191       11.3540399218        7.6261929064
O        11.3541263910       13.2369761587        0.4148658165
O         5.6563642219        3.7759112097        5.2245213652
O         3.7757726618       11.3539150071        7.6284046641
O        13.2369540902        5.6560174886        2.8186575307
O         5.6560034492       13.2369545442        6.7963601301
O        11.3539213240        3.7757664625        1.9866218750
O        13.2369879080       11.3541356660        9.2001513499
O         3.7758997411        5.6563672877        4.3905052096
O         5.6565595149        5.6721930548        6.7975154601
O        11.3540513771       11.3510844601        1.9888224617
O        13.2369734049        3.7692568084        9.2004216584
O         3.7758048260       13.2378185077        4.3900723453
O        11.3539637090        5.6721459517        0.4139755805
O         5.6560945133       11.3509850495        5.2224744040
O         3.7758091655        3.7695113483        7.6280888759
O        13.2369871997       13.2379439582        2.8188681494
O        13.2378914084       11.3510803320        5.2226813648
O         3.7695943501        5.6721251322        0.4136834707
O         5.6721998064       13.2379009166        2.8179331530
O        11.3510572448        3.7692830135        7.6259564582
O         3.7692865219       11.3510556634        1.9890681148
O        13.2378888203        5.6722093825        6.7970916028
O        11.3510727814       13.2378824327        4.3923441796
O         5.6721474271        3.7695995881        9.2013360475
O         3.7695493703        7.5668681240        1.9901028140
O        13.2378956722        9.4629676079        6.7938977238
O         7.5668486112        5.6565120276        4.3938012336
O         9.4629751098       11.3539693791        9.1979426591
O        13.2378491920        7.5668261847        5.2216502366
O         3.7695376010        9.4629572726        0.4167624195
O         9.4628582540        5.6564207333        2.8207043604
O         7.5668445010       11.3539311747        7.6252037217
O        11.3539676807        9.4629903042        0.4170659818
O         5.6565165518        7.5668346908        5.2212201540
O         5.6563978925        9.4628550735        6.7943124977
O        11.3539324122        7.5668562177        1.9898118214
O         9.4629528520        3.7695526781        9.1982516062
O         7.5668274187       13.2378437049        4.3933748352
O         7.5668754707        3.7695599146        7.6249153214
O         9.4629620189       13.2378896560        2.8211242499
O         7.5827625009        0.0015968358        1.9888664221
O         9.4693011825        1.8875674832        6.7965300921
O         0.0015798319        9.4693480565        4.3928865508
O         1.8876415533        7.5826386553        9.2000397441
O         9.4693528780        0.0015861619        5.2221324612
O         7.5826192992        1.8876214529        0.4149834682
O         1.8875666245        9.4693213826        2.8184995369
O         0.0015984548        7.5827300387        7.6261553700
O         7.5823371316        3.7758830562        1.9867625882
O         9.4693845328       13.2369744785        6.7966543609
O        11.3510602693        9.4692761610        4.3928107074
O         5.6721630370        7.5822408123        9.2012683863
O         9.4690632709        3.7758021451        5.2243484456
O         7.5827856442       13.2369447380        0.4148796348
O         5.6721270425        9.4690522978        2.8174560748
O        11.3509738631        7.5825998324        7.6262098339
O         3.7758792518        7.5823379518        7.6282522703
O        13.2369779050        9.4693918175        2.8183763477
O        13.2369443472        7.5827842984        9.2001386964
O         3.7758062872        9.4690577341        4.3906608343
O         9.4690357504        5.6721413203        6.7975594592
O         7.5826308185       11.3509801889        1.9888102126
O         7.5822068860        5.6721773549        0.4137506028
O         9.4692769406       11.3510618945        5.2222131324
O         7.5822090065        7.5668482021        1.9900368460
O         9.4690928517        9.4629727421        6.7944936286
O         7.5668691025        9.4690220766        4.3938375094
O         9.4628715584        7.5823878479        9.1980895523
O         9.4690111126        7.5668942314        5.2211717447
O         7.5823809097        9.4628610368        0.4169394199
O         9.4629593020        9.4690957571        2.8205351035
O         7.5668481901        7.5822040651        7.6249823405
     192
 i =        7, E =     -5775.2669049745
Ti         0.0009498677        0.0009320809        0.0000035128
Ti         1.8880453637        1.8880581078        4.8075116824
Ti         0.0009555053        1.8880041839        2.4021353778
Ti         1.8880171513        0.0009516077        7.2128773640
Ti         0.0009503758        3.7757733803        0.0029654805
Ti         1.8880374314       13.2376315821        4.8058615612
Ti        11.3505896483        1.8880244171        2.4036954051
Ti         5.6690287970        0.0009656608        7.2175070047
Ti         1.8880312329        3.7758060784        7.2098659714
Ti         0.0009616752       13.2375893890        2.4037902787
Ti         5.6690626017        1.8880720647        4.8028456733
Ti        11.3505745817        0.0009218682       -0.0015574506
Ti         3.7757834074        0.0009474408       -0.0029646863
Ti        13.2376340303        1.8880511043        4.8091578282
Ti        13.2376020080        0.0009713260        7.2112335970
Ti         3.7758058685        1.8880406663        2.4051505128
Ti         1.8880731425        5.6690812821        4.8121719229
Ti         0.0009289574       11.3505646937        0.0015494819
Ti         0.0009686460        5.6690243935        2.3975032891
Ti         1.8880272632       11.3505796676        7.2113238091
Ti         0.0009483901        7.5698041245        0.0062095161
Ti         1.8880611980        9.4629828467        4.8088105661
Ti         7.5698212531        1.8880445493        2.4083677961
Ti         9.4629506864        0.0009671386        7.2141512782
Ti         1.8880507232        7.5698217269        7.2066528231
Ti         0.0009608210        9.4629494090        2.4008750253
Ti         9.4629754599        1.8880676179        4.8062055604
Ti         7.5698045006        0.0009571860       -0.0062023058
Ti         3.7758103580        3.7758090491       -0.0000007605
Ti        13.2376275180       13.2376370416        4.8075224295
Ti        11.3505668780        5.6690403885        2.3990336354
Ti         5.6690456370       11.3505518063        7.2159886134
Ti        13.2375948544        3.7758094457        7.2082737263
Ti         3.7758066856       13.2375936310        2.4067476700
Ti         5.6690412624        5.6690437889        4.8075118730
Ti        11.3505601427       11.3505598665        0.0000012570
Ti        11.3505934898       13.2376099007        2.4053404998
Ti         5.6690379290        3.7758594311        7.2145269837
Ti         3.7757823590       11.3505553143       -0.0014556743
Ti        13.2376189606        5.6690644950        4.8137947923
Ti         5.6690555405       13.2376116837        4.8012288115
Ti        11.3505552960        3.7757739690        0.0014582599
Ti        13.2376108104       11.3505917425        7.2096773441
Ti         3.7758606539        5.6690344680        2.4004926650
Ti         3.7758354051        7.5698027392        0.0032047423
Ti        13.2376277690        9.4629860173        4.8104133634
Ti         7.5698482159        5.6690137683        2.4037023099
Ti         9.4629507794       11.3505717754        7.2126229584
Ti        13.2376039656        7.5698314494        7.2050309036
Ti         3.7758243034        9.4629193067        2.4038433190
Ti         9.4629161931        5.6690790945        4.8108557683
Ti         7.5697996636       11.3505543228       -0.0046751736
Ti        11.3505732693        9.4629450090        2.4023904149
Ti         5.6690157373        7.5698391694        7.2113175688
Ti         5.6690638825        9.4629121029        4.8041526315
Ti        11.3505467638        7.5697915035        0.0046698685
Ti         9.4629255044        3.7758261140        7.2111783197
Ti         7.5698334400       13.2375937461        2.4099935562
Ti         7.5698006910        3.7758424077       -0.0032112649
Ti         9.4629814729       13.2376312853        4.8046027610
Ti         7.5698266829        7.5698281087        0.0000078275
Ti         9.4629557235        9.4629598658        4.8075038939
Ti         7.5698246586        9.4628944612        2.4070472286
Ti         9.4628930441        7.5698223887        7.2079775913
O         0.0009142976        0.0016825154        1.9868203298
O         1.8848850110        1.8872626529        6.7945444163
O         0.0016594992        1.8849125038        4.3906997720
O         1.8872639377        0.0008688845        9.1981799049
O         1.8849219715        0.0016700545        5.2243185850
O         0.0008724758        1.8872564527        0.4168368074
O         1.8872641176        1.8848663086        2.8204819250
O         0.0016730262        0.0009136921        7.6282096934
O         0.0008738652        3.7756367060        1.9843529815
O         1.8849054712       13.2368374795        6.7944626624
O        11.3513374586        1.8848917551        4.3908096265
O         5.6719715053        0.0008070000        9.1996276664
O         1.8849093400        3.7756169229        5.2267290258
O         0.0008888652       13.2368292455        0.4169337891
O         5.6719455624        1.8847872026        2.8190775115
O        11.3513294861        0.0008957353        7.6280801551
O         3.7756352237        0.0008660530        7.6306596459
O        13.2368376120        1.8848869505        2.8205599014
O        13.2368353779        0.0008953880        9.1980776148
O         3.7756247587        1.8848960064        4.3882894088
O         1.8847916812        5.6719383686        6.7959403241
O         0.0008753136       11.3513325247        1.9869375222
O         0.0008164733        5.6719754624        0.4153972940
O         1.8849052623       11.3513332505        5.2242091601
O         0.0008322679        7.5669619323        1.9884238673
O         1.8848971868        9.4630476006        6.7921188825
O         7.5669945403        1.8848140603        4.3922449989
O         9.4630406048        0.0008598207        9.1957058482
O         1.8847980112        7.5669985384        5.2227713907
O         0.0008613939        9.4630204381        0.4193197409
O         9.4630499151        1.8848976683        2.8228994385
O         7.5669599719        0.0008181210        7.6265991933
O         3.7698092879        0.0016696013        1.9873426820
O        13.2375806596        1.8872632423        6.7944143487
O         0.0016604174        5.6561468006        4.3906403488
O         1.8872548204       11.3536573776        9.1982896367
O        13.2375668589        0.0016732012        5.2244580503
O         3.7698137005        1.8872909665        0.4163507042
O         1.8873379563        5.6562339698        2.8205332497
O         0.0016706390       11.3536741212        7.6280796175
O        11.3536483319        1.8872539395        0.4167307704
O         5.6561521847        0.0016561813        5.2243787940
O         5.6562365378        1.8873390460        6.7944854597
O        11.3536405376        0.0016725635        1.9869447080
O         1.8872928907        3.7698124617        9.1986678915
O         0.0016719726       13.2375824392        4.3905545284
O         0.0016603058        3.7698140639        7.6276739719
O         1.8872625137       13.2375691657        2.8206068201
O         3.7698831690        3.7756317510        1.9849966684
O        13.2375508449       13.2368332476        6.7943237610
O        11.3512527428        5.6562071767        4.3907511489
O         5.6719414127       11.3537475559        9.1997009528
O        13.2376069169        3.7756514017        5.2269206647
O         3.7698076135       13.2368381145        0.4164009943
O         5.6719552869        5.6564079316        2.8189343115
O        11.3513395988       11.3536681905        7.6279650414
O        11.3536303321       13.2368296572        0.4168009611
O         5.6564062030        3.7756620333        5.2266007219
O         3.7756200001       11.3536604587        7.6304911397
O        13.2368492813        5.6561679618        2.8206244722
O         5.6561633975       13.2368506516        6.7943968534
O        11.3536505007        3.7756318395        1.9845330031
O        13.2368413829       11.3536373324        9.1982135356
O         3.7756557196        5.6563899255        4.3884224212
O         5.6564052754        5.6719609974        6.7960959169
O        11.3536626888       11.3513359393        1.9870548342
O        13.2368476035        3.7698064710        9.1986184301
O         3.7756318644       13.2376115674        4.3880973046
O        11.3537427706        5.6719290565        0.4153269318
O         5.6562138765       11.3512536086        5.2242711092
O         3.7756292086        3.7698790203        7.6300309582
O        13.2368344907       13.2375499297        2.8207055520
O        13.2375712396       11.3513334489        5.2243402426
O         3.7697599134        5.6719124301        0.4149556472
O         5.6719854054       13.2376217185        2.8191521743
O        11.3513046099        3.7698237350        7.6275935210
O         3.7698226670       11.3513109058        1.9874292958
O        13.2376290070        5.6719797156        6.7958679190
O        11.3513362115       13.2375818588        4.3906815468
O         5.6719289891        3.7697526163        9.2000592251
O         3.7697638212        7.5670053860        1.9888454909
O        13.2375637116        9.4630231932        6.7919302996
O         7.5669950075        5.6563797647        4.3923915163
O         9.4630418319       11.3536400805        9.1958633590
O        13.2376400609        7.5669656703        5.2228505372
O         3.7698802968        9.4630408612        0.4186912723
O         9.4630043533        5.6564130614        2.8227669725
O         7.5669782723       11.3537485918        7.6265274358
O        11.3536404940        9.4630501003        0.4191476180
O         5.6563900110        7.5669816428        5.2226245495
O         5.6564105580        9.4630078283        6.7922406392
O        11.3537514115        7.5669907463        1.9884831538
O         9.4630350454        3.7698738841        9.1963384985
O         7.5669604757       13.2376440501        4.3921748865
O         7.5670092949        3.7697539513        7.6261636009
O         9.4630325708       13.2375776191        2.8230917299
O         7.5824840130        0.0016601683        1.9869033854
O         9.4687118976        1.8872957120        6.7948884356
O         0.0016633186        9.4687183702        4.3910640157
O         1.8873285062        7.5824353869        9.1982633556
O         9.4687203216        0.0016583896        5.2239594615
O         7.5824371538        1.8873359111        0.4167561106
O         1.8872869764        9.4686997788        2.8201319440
O         0.0016731044        7.5824841526        7.6281213451
O         7.5822600479        3.7756530940        1.9846804327
O         9.4687145685       13.2368448055        6.7948307957
O        11.3513045615        9.4687212014        4.3911596030
O         5.6719327888        7.5822767207        9.1998456491
O         9.4686580077        3.7756199967        5.2263056482
O         7.5824858822       13.2368525122        0.4168439643
O         5.6719184060        9.4687817665        2.8187319545
O        11.3512609448        7.5824315705        7.6280012238
O         3.7756527376        7.5822439875        7.6303356454
O        13.2368386219        9.4687190567        2.8201891723
O        13.2368389064        7.5825011429        9.1981716844
O         3.7756197098        9.4686573211        4.3887129646
O         9.4687904612        5.6719260435        6.7962675388
O         7.5824222043       11.3512622999        1.9870155934
O         7.5822771782        5.6719522391        0.4151725668
O         9.4687185294       11.3513017903        5.2238663512
O         7.5822612794        7.5669979192        1.9886373764
O         9.4686581336        9.4630497787        6.7925439547
O         7.5669953139        9.4687848728        4.3925740504
O         9.4630180224        7.5822600575        9.1960259153
O         9.4687892854        7.5670256172        5.2224506507
O         7.5822543496        9.4630155111        0.4190038403
O         9.4630492283        9.4686599078        2.8224755761
O         7.5669950159        7.5822620164        7.6263887852
     192
 i =        8, E =     -5775.2669094051
Ti         0.0012597498        0.0012524029       -0.0000034982
Ti         1.8881088419        1.8881122489        4.8075095140
Ti         0.0012497633        1.8880794327        2.4021606371
Ti         1.8881012082        0.0012481064        7.2128565716
Ti         0.0012234425        3.7761167931        0.0027522953
Ti         1.8881280012       13.2373161829        4.8058987389
Ti        11.3505235177        1.8880743290        2.4036996455
Ti         5.6689951523        0.0012127879        7.2172063336
Ti         1.8880706476        3.7761144795        7.2100497203
Ti         0.0012738640       13.2372518331        2.4037749092
Ti         5.6690112009        1.8880876749        4.8031029390
Ti        11.3504857730        0.0012289654       -0.0015403929
Ti         3.7761225495        0.0012275001       -0.0027496258
Ti        13.2373160783        1.8881248615        4.8091160360
Ti        13.2372702665        0.0012867876        7.2112570775
Ti         3.7761135802        1.8880650560        2.4049673052
Ti         1.8880864915        5.6690185357        4.8119153001
Ti         0.0012275572       11.3504952231        0.0015322388
Ti         0.0012204647        5.6689855066        2.3978060405
Ti         1.8880877182       11.3505233335        7.2113232603
Ti         0.0012099979        7.5697935823        0.0059114870
Ti         1.8880991928        9.4625921571        4.8086280596
Ti         7.5698195842        1.8880618639        2.4081208734
Ti         9.4625386479        0.0012392623        7.2139316408
Ti         1.8880544454        7.5698206957        7.2069015716
Ti         0.0012416024        9.4625312393        2.4010911961
Ti         9.4625879742        1.8881088210        4.8063886445
Ti         7.5697858641        0.0012048206       -0.0059071108
Ti         3.7760796083        3.7760818293       -0.0000037936
Ti        13.2372915331       13.2373013633        4.8075147066
Ti        11.3505470325        5.6689834427        2.3992926631
Ti         5.6689961319       11.3505350378        7.2157229640
Ti        13.2372958357        3.7761498700        7.2085063496
Ti         3.7761432968       13.2372881557        2.4065171367
Ti         5.6689477594        5.6689467423        4.8075082278
Ti        11.3504972589       11.3505020065        0.0000004935
Ti        11.3505089213       13.2372830646        2.4053116917
Ti         5.6689673618        3.7760759532        7.2144442528
Ti         3.7760970743       11.3505222169       -0.0012672902
Ti        13.2373430568        5.6690180585        4.8134731582
Ti         5.6690228739       13.2373419961        4.8015520954
Ti        11.3505136989        3.7760947170        0.0012710688
Ti        13.2372817816       11.3505156092        7.2097115834
Ti         3.7760820096        5.6689574998        2.4005741496
Ti         3.7760653857        7.5698270314        0.0031371397
Ti        13.2373190748        9.4625665855        4.8101845446
Ti         7.5698897014        5.6689220633        2.4037109383
Ti         9.4625641776       11.3505289438        7.2124370969
Ti        13.2373145756        7.5698180706        7.2053427512
Ti         3.7760983657        9.4625732626        2.4038355661
Ti         9.4626219860        5.6689990949        4.8107814441
Ti         7.5697961756       11.3505354630       -0.0044209844
Ti        11.3505290025        9.4625589900        2.4025749416
Ti         5.6689228560        7.5698780747        7.2113117869
Ti         5.6689947503        9.4626190377        4.8042387873
Ti        11.3505320697        7.5697965024        0.0044189758
Ti         9.4625804557        3.7760954839        7.2111757417
Ti         7.5698104572       13.2373179872        2.4096781019
Ti         7.5698269119        3.7760610128       -0.0031365787
Ti         9.4625630772       13.2373340589        4.8048385354
Ti         7.5698702192        7.5698712061        0.0000060251
Ti         9.4626102207        9.4626121787        4.8075095958
Ti         7.5698372819        9.4626002964        2.4069734577
Ti         9.4625991833        7.5698429911        7.2080416744
O         0.0004792867        0.0016688242        1.9866082709
O         1.8844896428        1.8874859374        6.7943370818
O         0.0016651325        1.8844739948        4.3904512744
O         1.8875055433        0.0004931202        9.1980181875
O         1.8844631220        0.0016637482        5.2245735715
O         0.0004964204        1.8875062703        0.4170034713
O         1.8874851962        1.8844974252        2.8206834888
O         0.0016740728        0.0004776605        7.6284091934
O         0.0005394592        3.7757218520        1.9836304577
O         1.8844607319       13.2368418846        6.7942103287
O        11.3510601009        1.8844984569        4.3906086888
O         5.6721098945        0.0005372168        9.1989248180
O         1.8845760741        3.7756900380        5.2274816895
O         0.0004751803       13.2368353716        0.4171388411
O         5.6720767489        1.8845343333        2.8197817901
O        11.3510375756        0.0004987139        7.6282432782
O         3.7757274174        0.0005409356        7.6313852125
O        13.2368397160        1.8844680950        2.8208051267
O        13.2368294436        0.0004715119        9.1978820477
O         3.7756998079        1.8845830620        4.3875374351
O         1.8845337743        5.6720735883        6.7952362237
O         0.0004982854       11.3510339991        1.9867775213