     192
 i =        6, E =     -5775.2667779472
Ti         0.0001212368        0.0001209655        0.0000002603
Ti        -0.0001483802       -0.0001456849       -0.0000003843
Ti         0.0001219107       -0.0001509862        0.0000751230
Ti        -0.0001526067        0.0001233644       -0.0000732342
Ti         0.0001239331       -0.0000254022        0.0000761893
Ti        -0.0001524651       -0.0001224285        0.0000741881
Ti         0.0001473615       -0.0001496498        0.0000073231
Ti        -0.0000278666        0.0001304137        0.0001876809
Ti        -0.0001461056       -0.0000230451       -0.0001512872
Ti         0.0001246897       -0.0001247775       -0.0000012453
Ti        -0.0000314436       -0.0001403397       -0.0002603881
Ti         0.0001492153        0.0001192522        0.0000680842
Ti        -0.0000269572        0.0001227294       -0.0000744346
Ti        -0.0001215108       -0.0001486607       -0.0000732116
Ti        -0.0001242856        0.0001261527        0.0000011834
Ti        -0.0000234643       -0.0001468523        0.0001506531
Ti        -0.0001416678       -0.0000307451        0.0002625259
Ti         0.0001217920        0.0001460053       -0.0000659384
Ti         0.0001302849       -0.0000301849       -0.0001873286
Ti        -0.0001508631        0.0001459455       -0.0000073780
Ti         0.0001251160        0.0000147397        0.0001771997
Ti        -0.0001466129        0.0000232814        0.0001529774
Ti         0.0000190317       -0.0001456992        0.0002522317
Ti         0.0000221766        0.0001251141        0.0000773251
Ti        -0.0001438711        0.0000206476       -0.0002555623
Ti         0.0001248850        0.0000221981       -0.0000752326
Ti         0.0000244850       -0.0001470366       -0.0001536105
Ti         0.0000170163        0.0001285520       -0.0001797936
Ti        -0.0000260882       -0.0000276261        0.0000003274
Ti        -0.0001203397       -0.0001243425       -0.0000006412
Ti         0.0001406665       -0.0000323942       -0.0002536054
Ti        -0.0000333315        0.0001411104        0.0002539787
Ti        -0.0001256115       -0.0000243357       -0.0000757943
Ti        -0.0000254842       -0.0001254073        0.0000755206
Ti        -0.0000356947       -0.0000343371       -0.0000001267
Ti         0.0001456390        0.0001454382       -0.0000011323
Ti         0.0001476797       -0.0001214211       -0.0000677124
Ti        -0.0000380283       -0.0000196042        0.0001061165
Ti        -0.0000272749        0.0001403389       -0.0001446205
Ti        -0.0001281802       -0.0000236215        0.0001881864
Ti        -0.0000281023       -0.0001282229       -0.0001880464
Ti         0.0001431113       -0.0000265453        0.0001440112
Ti        -0.0001210889        0.0001496028        0.0000655005
Ti        -0.0000201396       -0.0000388553       -0.0001057169
Ti        -0.0000233278        0.0000248337        0.0000986322
Ti        -0.0001223125        0.0000230357        0.0000764872
Ti         0.0000228449       -0.0000359673       -0.0000075679
Ti         0.0000213102        0.0001446401        0.0001448831
Ti        -0.0001268620        0.0000157158       -0.0001808305
Ti        -0.0000265603        0.0000218208       -0.0000006342
Ti         0.0000182746       -0.0000343459        0.0001049327
Ti         0.0000186053        0.0001368078       -0.0002464285
Ti         0.0001421115        0.0000188392       -0.0001434727
Ti        -0.0000370323        0.0000245029        0.0000060795
Ti        -0.0000385163        0.0000163966       -0.0001051156
Ti         0.0001400714        0.0000178748        0.0002488516
Ti         0.0000227122       -0.0000244131        0.0000039328
Ti         0.0000178007       -0.0001289788        0.0001807314
Ti         0.0000233166       -0.0000232924       -0.0000982865
Ti         0.0000226371       -0.0001255236       -0.0000772651
Ti         0.0000246412        0.0000237353       -0.0000001200
Ti         0.0000211719        0.0000233412       -0.0000028950
Ti         0.0000285821        0.0000157126        0.0000997116
Ti         0.0000157028        0.0000272598       -0.0000987767
O         0.0000492565        0.0001498159       -0.0005614011
O         0.0000501155       -0.0000860723       -0.0005236670
O         0.0001441356        0.0000645717       -0.0005979542
O        -0.0000869342        0.0000344637       -0.0004853166
O         0.0000648690        0.0001408813        0.0005980555
O         0.0000354184       -0.0000856356        0.0004847171
O        -0.0000847974        0.0000453293        0.0005224231
O         0.0001467831        0.0000494200        0.0005635224
O         0.0000350101        0.0000567121       -0.0006262375
O         0.0000578475       -0.0001556180       -0.0005988894
O         0.0000794768        0.0000574358       -0.0005311770
O        -0.0000357144        0.0000228434       -0.0005121951
O         0.0000425568        0.0000550779        0.0006633242
O         0.0000400016       -0.0001535964        0.0005623796
O        -0.0000401043        0.0000219303        0.0005499566
O         0.0000908465        0.0000449647        0.0004932582
O         0.0000540052        0.0000331636        0.0006246238
O        -0.0001532107        0.0000529831        0.0006002072
O        -0.0001503617        0.0000406920       -0.0005655193
O         0.0000523329        0.0000402535       -0.0006625825
O         0.0000234988       -0.0000397726       -0.0005494684
O         0.0000395934        0.0000937215       -0.0004924502
O         0.0000245718       -0.0000370740        0.0005121201
O         0.0000585340        0.0000809325        0.0005316985
O         0.0000313614        0.0000237022       -0.0005059328
O         0.0000363429       -0.0000751564       -0.0006644883
O         0.0000248835        0.0000331146       -0.0005447398
O        -0.0000662967        0.0000279942       -0.0006263239
O         0.0000287183        0.0000230789        0.0005448570
O         0.0000290191       -0.0000657622        0.0006266648
O        -0.0000738078        0.0000356460        0.0006656536
O         0.0000207324        0.0000288219        0.0005045592
O         0.0000734188        0.0001477679       -0.0005383023
O        -0.0000407491       -0.0000913824       -0.0004819520
O         0.0001312730        0.0000251381       -0.0004920666
O        -0.0000804900       -0.0000539652       -0.0005246479
O        -0.0000415149        0.0001435175        0.0005588508
O         0.0000597546       -0.0000843889        0.0004625765
O        -0.0000994831        0.0000087038        0.0004157957
O         0.0001493744       -0.0000482265        0.0005991776
O        -0.0000541211       -0.0000835040        0.0005216648
O         0.0000239085        0.0001326829        0.0004920461
O         0.0000108563       -0.0000975661       -0.0004155362
O        -0.0000569558        0.0001527169       -0.0005980769
O        -0.0000816593        0.0000589285       -0.0004639791
O         0.0001425753       -0.0000370527       -0.0005603336
O         0.0001440460        0.0000754448        0.0005381376
O        -0.0000861779       -0.0000449854        0.0004824931
O         0.0000465926        0.0000508127       -0.0005985828
O        -0.0000481709       -0.0001590166       -0.0005610587
O         0.0000955704        0.0000143648       -0.0004241489
O        -0.0000374729       -0.0000275917       -0.0005491580
O        -0.0000267979        0.0000499618        0.0006239201
O         0.0000689664       -0.0001470708        0.0005396545
O        -0.0000529513       -0.0000192792        0.0004625345
O         0.0000841285       -0.0000466222        0.0005320905
O        -0.0000616890       -0.0001504549        0.0005992395
O         0.0000055754        0.0000226215        0.0005557569
O         0.0000578609       -0.0000323564        0.0006632830
O        -0.0001449088        0.0000182507        0.0004940418
O         0.0000194602       -0.0001452960       -0.0004932873
O        -0.0000343475        0.0000613355       -0.0006631165
O        -0.0001540901       -0.0000620187       -0.0005989804
O         0.0000262505        0.0000032497       -0.0005572116
O        -0.0000176252       -0.0000543202       -0.0004608842
O        -0.0000486602        0.0000847433       -0.0005310805
O        -0.0001486031        0.0000683635       -0.0005399197
O         0.0000512561       -0.0000254718       -0.0006233469
O        -0.0000285438       -0.0000377638        0.0005511255
O         0.0000152184        0.0000945619        0.0004254294
O         0.0000463561        0.0000464711        0.0005995502
O        -0.0001573387       -0.0000483416        0.0005632712
O        -0.0000392728        0.0000872027        0.0004914912
O         0.0000221190       -0.0000419508        0.0005025172
O        -0.0000375766       -0.0000342436        0.0005077505
O         0.0000849325        0.0000676549        0.0004702615
O         0.0000670884        0.0000880888       -0.0004711879
O        -0.0000318621       -0.0000406068       -0.0005090055
O         0.0000889148       -0.0000368528       -0.0004916339
O        -0.0000439234        0.0000206059       -0.0005031386
O         0.0000281210        0.0000310197       -0.0004986659
O        -0.0000408092       -0.0000719250       -0.0006253641
O         0.0000383355       -0.0000149786       -0.0004582895
O        -0.0000692796       -0.0000415169       -0.0006652096
O        -0.0000256384        0.0000228238        0.0005029185
O         0.0000433599       -0.0000622891        0.0006001090
O        -0.0000423694       -0.0000006131        0.0005566976
O         0.0000260513       -0.0000237970        0.0005451580
O        -0.0000412347       -0.0000714932        0.0006657439
O        -0.0000142831        0.0000391916        0.0004575902
O         0.0000019519       -0.0000414855       -0.0005576141
O        -0.0000236085        0.0000263289       -0.0005465768
O        -0.0000628528        0.0000407189       -0.0005990419
O         0.0000227696       -0.0000244582       -0.0005035960
O         0.0000315448        0.0000256427        0.0004966624
O        -0.0000687582       -0.0000383696        0.0006263908
O        -0.0000336210        0.0001374628       -0.0004941385
O        -0.0000736699       -0.0000869189       -0.0004664862
O         0.0001402992       -0.0000782702       -0.0005421170
O        -0.0000982179       -0.0000251353       -0.0004175403
O        -0.0000786267        0.0001378700        0.0005427383
O        -0.0000225252       -0.0000906054        0.0004176016
O        -0.0000878400       -0.0000776223        0.0004640428
O         0.0001387667       -0.0000295785        0.0004960394
O        -0.0000094617        0.0000320371       -0.0005577118
O        -0.0000832043       -0.0001492320       -0.0005434307
O         0.0000842916       -0.0000694283       -0.0004738630
O        -0.0000506674        0.0000035135       -0.0004628310
O        -0.0000510972        0.0000462911        0.0006015316
O        -0.0000362260       -0.0001402465        0.0004956757
O        -0.0000423066       -0.0000350272        0.0005029571
O         0.0000990961       -0.0000207273        0.0004259471
O         0.0000326408       -0.0000115077        0.0005584632
O        -0.0001519909       -0.0000835582        0.0005409144
O        -0.0001413316       -0.0000342328       -0.0004949725
O         0.0000463125       -0.0000504953       -0.0006002247
O        -0.0000319539       -0.0000440461       -0.0005055956
O        -0.0000257366        0.0000993507       -0.0004268331
O         0.0000077506       -0.0000512110        0.0004629485
O        -0.0000698552        0.0000849556        0.0004734240
O         0.0000056069        0.0000383211       -0.0004571635
O        -0.0000546822       -0.0000676176       -0.0006035018
O         0.0000296051       -0.0000309091       -0.0004992527
O        -0.0000440387       -0.0000156849       -0.0005583442
O        -0.0000290250        0.0000278180        0.0005024536
O        -0.0000155483       -0.0000396032        0.0005567302
O        -0.0000622555       -0.0000548358        0.0006033184
O         0.0000381158        0.0000063612        0.0004585099
     192
 i =        7, E =     -5775.2669049745
Ti         0.0001875555        0.0001900573       -0.0000024361
Ti        -0.0000068893       -0.0000103089       -0.0000011405
Ti         0.0001787511        0.0000069919        0.0000387536
Ti         0.0000055375        0.0001790185       -0.0000376514
Ti         0.0001742120        0.0001258471        0.0000371650
Ti         0.0000071324       -0.0001792845        0.0000447904
Ti         0.0000092468       -0.0000047958        0.0000016087
Ti         0.0000167486        0.0001665665       -0.0000058833
Ti        -0.0000148390        0.0001088213       -0.0000728764
Ti         0.0001865223       -0.0001866699       -0.0000093369
Ti         0.0000077194       -0.0000294504       -0.0000310176
Ti         0.0000030620        0.0001835825        0.0000345356
Ti         0.0001244989        0.0001741162       -0.0000351508
Ti        -0.0001850316        0.0000023765       -0.0000425753
Ti        -0.0001886610        0.0001862667        0.0000093226
Ti         0.0001101109       -0.0000191909        0.0000739702
Ti        -0.0000306690        0.0000007011        0.0000325557
Ti         0.0001821876        0.0000067332       -0.0000324548
Ti         0.0001679203        0.0000164693        0.0000081921
Ti        -0.0000028915        0.0000150479        0.0000001046
Ti         0.0001699789       -0.0000208963       -0.0000081669
Ti        -0.0000165219       -0.0001323234        0.0000720091
Ti        -0.0000136361       -0.0000265146        0.0000352546
Ti        -0.0001404502        0.0001710932        0.0000322859
Ti        -0.0000290626       -0.0000164702       -0.0000346957
Ti         0.0001734220       -0.0001414354       -0.0000345044
Ti        -0.0001312175       -0.0000179390       -0.0000728056
Ti        -0.0000199989        0.0001677763        0.0000048976
Ti         0.0000923206        0.0000921288       -0.0000023711
Ti        -0.0001927436       -0.0001921602       -0.0000027709
Ti         0.0000320726        0.0000088889       -0.0000292956
Ti         0.0000066896        0.0000363513        0.0000288983
Ti        -0.0001751969        0.0001227908       -0.0000297933
Ti         0.0001225195       -0.0001736881        0.0000299533
Ti        -0.0000205141       -0.0000232422       -0.0000023868
Ti         0.0000140773        0.0000134585       -0.0000024488
Ti         0.0000025367       -0.0001834293       -0.0000396722
Ti        -0.0000079018        0.0000717970       -0.0000449780
Ti         0.0001131939        0.0000257271       -0.0000720015
Ti        -0.0001739707        0.0000129434       -0.0000162101
Ti         0.0000139699       -0.0001722250        0.0000160148
Ti         0.0000223971        0.0001137286        0.0000702697
Ti        -0.0001839461        0.0000005975        0.0000410542
Ti         0.0000735426       -0.0000075276        0.0000437316
Ti         0.0000757632        0.0000048816       -0.0000375869
Ti        -0.0001812683       -0.0001445394        0.0000290580
Ti         0.0000124431       -0.0000180498        0.0000012160
Ti        -0.0001282539        0.0000219932        0.0000723075
Ti        -0.0001743731       -0.0000227424        0.0000154161
Ti         0.0000924466       -0.0001075332       -0.0000019544
Ti        -0.0000921512       -0.0000137121       -0.0000376064
Ti        -0.0000146258        0.0000359146       -0.0000305030
Ti         0.0000218591       -0.0001272289       -0.0000722554
Ti        -0.0000172218        0.0000139276        0.0000001649
Ti        -0.0000097962       -0.0000909578        0.0000416740
Ti         0.0000358572       -0.0000111182        0.0000326691
Ti        -0.0001093187        0.0000917649       -0.0000025657
Ti        -0.0000247047       -0.0001716003       -0.0000159473
Ti         0.0000058904        0.0000737996        0.0000417979
Ti        -0.0001435150       -0.0001783173       -0.0000251922
Ti         0.0000139318        0.0000165169       -0.0000027751
Ti        -0.0001123838       -0.0001118068        0.0000017290
Ti        -0.0000016367       -0.0000887592       -0.0000382441
Ti        -0.0000883691        0.0000022234        0.0000359877
O        -0.0000887100        0.0000588473       -0.0000347128
O        -0.0000810950       -0.0000437514       -0.0000131599
O         0.0000761682       -0.0000920768       -0.0000545379
O        -0.0000481256       -0.0000749791        0.0000081028
O        -0.0000957300        0.0000679228        0.0000553069
O        -0.0000752306       -0.0000446441       -0.0000073765
O        -0.0000455029       -0.0000753800        0.0000121452
O         0.0000677787       -0.0000889223        0.0000325705
O        -0.0000677444        0.0000187911       -0.0001717797
O        -0.0000917107       -0.0000643481       -0.0000575650
O         0.0000356444       -0.0000823541       -0.0000150619
O         0.0000025379       -0.0000536022       -0.0001414308
O        -0.0000684310        0.0000301772        0.0001889910
O        -0.0000829519       -0.0000677468        0.0000366196
O         0.0000040401       -0.0000497263        0.0001534656
O         0.0000384819       -0.0000809889       -0.0000037793
O         0.0000206636       -0.0000656940        0.0001724749
O        -0.0000620753       -0.0000860886        0.0000556059
O        -0.0000669689       -0.0000849015       -0.0000340587
O         0.0000237386       -0.0000643441       -0.0001891170
O        -0.0000509410        0.0000074538       -0.0001537952
O        -0.0000763304        0.0000350859        0.0000047768
O        -0.0000569414       -0.0000006505        0.0001396252
O        -0.0000870723        0.0000373468        0.0000150669
O        -0.0000610211       -0.0000228037       -0.0001417837
O        -0.0000664412       -0.0000251478       -0.0001914706
O        -0.0000185284       -0.0000567510       -0.0001547826
O        -0.0000279797       -0.0000653034       -0.0001752938
O        -0.0000526544       -0.0000197615        0.0001558345
O        -0.0000660026       -0.0000174090        0.0001753792
O        -0.0000256140       -0.0000663862        0.0001923797
O        -0.0000219691       -0.0000564436        0.0001433804
O        -0.0001207711        0.0000689660       -0.0000065231
O         0.0000737033       -0.0000422035        0.0000051488
O         0.0000800705       -0.0000250957        0.0000801681
O        -0.0000428673        0.0000711561       -0.0000085303
O         0.0000805998        0.0000732416        0.0000357485
O        -0.0001120781       -0.0000446510       -0.0000366962
O        -0.0000489656       -0.0000276510       -0.0001183844
O         0.0000650780        0.0000727444        0.0000493876
O         0.0000754612       -0.0000439252        0.0000084032
O        -0.0000264844        0.0000829838       -0.0000806926
O        -0.0000286775       -0.0000491890        0.0001180717
O         0.0000819247        0.0000637885       -0.0000518368
O        -0.0000447997       -0.0001121202        0.0000368109
O         0.0000703484        0.0000762651       -0.0000332231
O         0.0000744208       -0.0001220469        0.0000062511
O        -0.0000443707        0.0000757667       -0.0000069000
O        -0.0000950036        0.0000217805       -0.0001310492
O         0.0000847053       -0.0000634115       -0.0000380721
O         0.0000476618       -0.0000248896        0.0001146011
O         0.0000008935        0.0000438414       -0.0001523244
O         0.0000605896        0.0000162918        0.0001747155
O        -0.0001212513       -0.0000689918        0.0000088153
O        -0.0000066355       -0.0000237763        0.0000235209
O         0.0000303587        0.0000709471        0.0000139217
O         0.0000843918       -0.0000624521        0.0000548673
O        -0.0000270265        0.0000233616        0.0000592528
O         0.0000229789        0.0000535802        0.0001862252
O        -0.0000756923       -0.0000277905       -0.0000788577
O        -0.0000277396       -0.0000782624        0.0000778587
O         0.0000575890        0.0000167729       -0.0001859237
O        -0.0000707058        0.0000810888       -0.0000532640
O         0.0000264807       -0.0000237558       -0.0000592192
O        -0.0000233725       -0.0000075726       -0.0000241216
O         0.0000719058        0.0000328334       -0.0000133146
O        -0.0000744099       -0.0001210298       -0.0000084020
O         0.0000245643        0.0000591101       -0.0001745166
O         0.0000456005        0.0000056064        0.0001496531
O        -0.0000275185        0.0000447596       -0.0001162405
O         0.0000234936       -0.0000938149        0.0001308489
O        -0.0000659603        0.0000854971        0.0000364330
O         0.0000780750        0.0000387939       -0.0000026065
O        -0.0000734725        0.0000014556        0.0001025703
O         0.0000007733        0.0000591386        0.0001437244
O         0.0000327988       -0.0001158665       -0.0000313963
O        -0.0001160277        0.0000282269        0.0000329943
O         0.0000574762        0.0000033878       -0.0001426782
O         0.0000385134        0.0000744116        0.0000030761
O        -0.0000032548       -0.0000714960       -0.0001011074
O        -0.0000745193       -0.0000162877       -0.0001028592
O         0.0000729713       -0.0000149209       -0.0001759735
O        -0.0000126001       -0.0000191826       -0.0000246264
O        -0.0000249675        0.0000594079       -0.0001885175
O         0.0000554930       -0.0000192834        0.0001433352
O        -0.0000959042       -0.0000303368        0.0001333755
O        -0.0000205603       -0.0000263989        0.0000613834
O        -0.0000162728        0.0000438436        0.0001531417
O         0.0000591559       -0.0000307496        0.0001903576
O        -0.0000218080       -0.0000086381        0.0000252581
O        -0.0000276271       -0.0000245910       -0.0000606513
O         0.0000435458       -0.0000209259       -0.0001516620
O        -0.0000248311       -0.0000935749       -0.0001354593
O        -0.0000190591        0.0000535699       -0.0001446871
O        -0.0000157385       -0.0000712450        0.0001048180
O        -0.0000197235        0.0000681625        0.0001765979
O         0.0000242145        0.0000764596        0.0000777824
O         0.0001206200       -0.0000452528        0.0000386887
O         0.0000743406        0.0001298449       -0.0000029257
O        -0.0000500818        0.0000207679        0.0001154707
O         0.0001286841        0.0000776881        0.0000023936
O         0.0000204857       -0.0000514700       -0.0001157476
O        -0.0000427702        0.0001236471       -0.0000391180
O         0.0000694252        0.0000238356       -0.0000785195
O         0.0000189299        0.0000241535       -0.0000616677
O         0.0001300886       -0.0000685216       -0.0000056376
O         0.0000370377        0.0001193230        0.0000331296
O        -0.0000021819        0.0000144820       -0.0000255885
O         0.0001006481        0.0000317874        0.0001297338
O         0.0000242657       -0.0000793936       -0.0000747700
O         0.0000015599        0.0000782354        0.0001016958
O         0.0000429667        0.0000216258       -0.0001113628
O         0.0000227193        0.0000217658        0.0000606104
O        -0.0000663737        0.0001285316        0.0000051339
O        -0.0000706222        0.0000206212        0.0000756960
O         0.0000277406        0.0000996408       -0.0001298150
O         0.0000763702        0.0000026628       -0.0000978968
O         0.0000246306        0.0000419220        0.0001116003
O         0.0000142516       -0.0000084728        0.0000259106
O         0.0001195169        0.0000395512       -0.0000358071
O         0.0000170043       -0.0000153259       -0.0000251873
O         0.0001004002       -0.0000295609       -0.0001315288
O        -0.0000113115        0.0000774051       -0.0001016450
O        -0.0000301888        0.0000201811       -0.0000642292
O         0.0000762916       -0.0000182547        0.0000991369
O         0.0000210838       -0.0000261034        0.0000626050
O        -0.0000302004        0.0001007844        0.0001327332
O        -0.0000148648        0.0000166949        0.0000264766
     192
 i =        8, E =     -5775.2669094051
Ti         0.0000793657        0.0000807321        0.0000004545
Ti        -0.0001436015       -0.0001430991        0.0000001619
Ti         0.0000772396       -0.0001417384        0.0000311029
Ti        -0.0001452207        0.0000775303       -0.0000314677
Ti         0.0000849139       -0.0000282760        0.0000811814
Ti        -0.0001482639       -0.0000841025        0.0000298023
Ti         0.0001316226       -0.0001395201        0.0000072577
Ti        -0.0000192717        0.0000907984        0.0001106161
Ti        -0.0001302754       -0.0000287870       -0.0001089353
Ti         0.0000782519       -0.0000808903        0.0000016827
Ti        -0.0000222123       -0.0001290392       -0.0001363920
Ti         0.0001385141        0.0000791654        0.0000243053
Ti        -0.0000300073        0.0000852489       -0.0000804414
Ti        -0.0000839096       -0.0001468151       -0.0000279940
Ti        -0.0000825258        0.0000771517       -0.0000025492
Ti        -0.0000283222       -0.0001282690        0.0001091932
Ti        -0.0001295755       -0.0000237803        0.0001370935
Ti         0.0000792585        0.0001359693       -0.0000231035
Ti         0.0000891966       -0.0000188417       -0.0001096606
Ti        -0.0001421071        0.0001304846       -0.0000079337
Ti         0.0000891109        0.0000164615        0.0001048782
Ti        -0.0001328903        0.0000273292        0.0001167169
Ti         0.0000153912       -0.0001272953        0.0001334260
Ti         0.0000330838        0.0000828036        0.0000859544
Ti        -0.0001265541        0.0000150669       -0.0001341194
Ti         0.0000818632        0.0000332424       -0.0000865010
Ti         0.0000279674       -0.0001347217       -0.0001163626
Ti         0.0000172076        0.0000914761       -0.0001058588
Ti        -0.0000194214       -0.0000191382        0.0000001278
Ti        -0.0000830451       -0.0000856633       -0.0000003271
Ti         0.0001181285       -0.0000197872       -0.0001286404
Ti        -0.0000230477        0.0001177462        0.0001291765
Ti        -0.0000859013       -0.0000323956       -0.0000828274
Ti        -0.0000319480       -0.0000850755        0.0000831243
Ti        -0.0000249488       -0.0000240591       -0.0000002240
Ti         0.0001350173        0.0001346288       -0.0000000887
Ti         0.0001362491       -0.0000799872       -0.0000217429
Ti        -0.0000242927       -0.0000159784        0.0000271239
Ti        -0.0000280039        0.0001225034       -0.0001036156
Ti        -0.0000945174       -0.0000207792        0.0001106185
Ti        -0.0000220074       -0.0000954745       -0.0001126225
Ti         0.0001235437       -0.0000272160        0.0001020399
Ti        -0.0000776311        0.0001345111        0.0000207985
Ti        -0.0000168791       -0.0000242641       -0.0000265493
Ti        -0.0000159222        0.0000196513        0.0000228430
Ti        -0.0000854232        0.0000301638        0.0000887422
Ti         0.0000168161       -0.0000218633       -0.0000036773
Ti         0.0000291093        0.0001223144        0.0001104411
Ti        -0.0000906106        0.0000142295       -0.0001070181
Ti        -0.0000220758        0.0000223084       -0.0000053759
Ti         0.0000148727       -0.0000261725        0.0000209387
Ti         0.0000173173        0.0001199462       -0.0001256905
Ti         0.0001230576        0.0000296333       -0.0001097307
Ti        -0.0000233271        0.0000168554        0.0000030687
Ti        -0.0000276057        0.0000137895       -0.0000208539
Ti         0.0001209682        0.0000176026        0.0001272094
Ti         0.0000219905       -0.0000210882        0.0000073594
Ti         0.0000149810       -0.0000916536        0.0001077359
Ti         0.0000196470       -0.0000138376       -0.0000232029
Ti         0.0000310268       -0.0000887105       -0.0000891343
Ti         0.0000192823        0.0000182666       -0.0000021540
Ti         0.0000173751        0.0000190831       -0.0000013211
Ti         0.0000183058        0.0000172956        0.0000195012
Ti         0.0000158113        0.0000173984       -0.0000172500
O         0.0000567782        0.0001257650       -0.0000077917
O         0.0000656275       -0.0001028330        0.0000598821
O         0.0001257761        0.0000715409       -0.0000206952
O        -0.0001062249        0.0000518097        0.0000744174
O         0.0000747622        0.0001259552        0.0000189776
O         0.0000511020       -0.0001084618       -0.0000750743
O        -0.0001017569        0.0000627841       -0.0000596445
O         0.0001253129        0.0000573377        0.0000087544
O         0.0000425338        0.0000429037        0.0000018693
O         0.0000749508       -0.0001274872       -0.0000200901
O         0.0001107659        0.0000638878        0.0000522588
O         0.0000041713        0.0000372220        0.0000949104
O         0.0000543680        0.0000490873        0.0000162370
O         0.0000571454       -0.0001343410        0.0000084710
O         0.0000055899        0.0000475600       -0.0000752347
O         0.0001114733        0.0000512486       -0.0000674851
O         0.0000424463        0.0000421931       -0.0000014924
O        -0.0001257783        0.0000720843        0.0000212333
O        -0.0001291580        0.0000581338       -0.0000090638
O         0.0000448030        0.0000525490       -0.0000163715
O         0.0000478266        0.0000059260        0.0000751445
O         0.0000509348        0.0001138393        0.0000672235