     192
 i =        1, E =     -5781.5351872652
Ti        -0.0006982154       -0.0007027861        0.0000021203
Ti         1.8927223138        1.8927316893        4.8075071834
Ti        -0.0006677016        1.8927284623        2.4026366449
Ti         1.8927387046       -0.0006699314        7.2123777071
Ti        -0.0006472847        3.7811848662        0.0016965812
Ti         1.8927597645       13.2394821271        4.8063734441
Ti        11.3461183562        1.8927256612        2.4037209673
Ti         5.6738647828       -0.0006370575        7.2133671378
Ti         1.8926909307        3.7812244353        7.2106892578
Ti        -0.0006922294       13.2394854781        2.4037804297
Ti         5.6738801659        1.8927047111        4.8065233375
Ti        11.3460829724       -0.0006734869       -0.0010946288
Ti         3.7811902309       -0.0006387509       -0.0016950465
Ti        13.2394679076        1.8927418942        4.8086360138
Ti        13.2394934789       -0.0006968901        7.2112599935
Ti         3.7812210433        1.8927030586        2.4043294722
Ti         1.8926898523        5.6738778647        4.8084895445
Ti        -0.0006774772       11.3460950461        0.0010850902
Ti        -0.0006373993        5.6738653039        2.4016404933
Ti         1.8927341811       11.3461121128        7.2112925224
Ti        -0.0006355570        7.5650782735        0.0020946857
Ti         1.8927371461        9.4576979396        4.8080538550
Ti         7.5650836705        1.8926938907        2.4047295814
Ti         9.4577107727       -0.0006467955        7.2129376156
Ti         1.8926953356        7.5650741749        7.2102989348
Ti        -0.0006380671        9.4577065756        2.4020848241
Ti         9.4576889350        1.8927168488        4.8069634259
Ti         7.5650676462       -0.0006329777       -0.0020878359
Ti         3.7812170042        3.7812244098        0.0000055800
Ti        13.2394962382       13.2395038861        4.8075087032
Ti        11.3461622961        5.6738692880        2.4027424674
Ti         5.6738763117       11.3461467391        7.2122769141
Ti        13.2394403784        3.7812083644        7.2095682467
Ti         3.7812031502       13.2394314608        2.4054646215
Ti         5.6738794089        5.6738888076        4.8075115383
Ti        11.3461083489       11.3461143965       -0.0000006912
Ti        11.3461012097       13.2394623697        2.4048592630
Ti         5.6738613492        3.7812197415        7.2116875775
Ti         3.7812177116       11.3461502398       -0.0006000428
Ti        13.2394403734        5.6738716413        4.8096338810
Ti         5.6738905837       13.2394511864        4.8053995094
Ti        11.3461333339        3.7812128048        0.0005982670
Ti        13.2394693815       11.3460893036        7.2101657035
Ti         3.7812197706        5.6738734375        2.4033431129
Ti         3.7812212064        7.5650864808        0.0004064350
Ti        13.2394702541        9.4577186763        4.8091906889
Ti         7.5650817855        5.6738670066        2.4037358469
Ti         9.4576894146       11.3461326542        7.2118427488
Ti        13.2394368681        7.5650721305        7.2091718186
Ti         3.7812286745        9.4576728359        2.4037856776
Ti         9.4576967879        5.6738913429        4.8079497874
Ti         7.5650762254       11.3461594685       -0.0009953696
Ti        11.3461491180        9.4576881015        2.4031764720
Ti         5.6738632529        7.5650736632        7.2112689100
Ti         5.6739005559        9.4577040878        4.8070596082
Ti        11.3461550073        7.5650738684        0.0009902764
Ti         9.4576819992        3.7812199963        7.2112388610
Ti         7.5650739452       13.2394352326        2.4058534335
Ti         7.5650736742        3.7812116507       -0.0004057722
Ti         9.4577180283       13.2394702507        4.8058281663
Ti         7.5650729777        7.5650769399       -0.0000015643
Ti         9.4577097517        9.4577108214        4.8075103731
Ti         7.5650726776        9.4576925554        2.4041778093
Ti         9.4576816304        7.5650702258        7.2108459867
O         0.0012871416        0.0026749121        1.9928276111
O         1.8844786861        1.8897858507        6.7985240259
O         0.0026513675        1.8842793650        4.3957643445
O         1.8897154237        0.0012876032        9.2030381517
O         1.8842634903        0.0026640603        5.2192561718
O         0.0012955285        1.8897143375        0.4119766614
O         1.8897732754        1.8844630868        2.8164998343
O         0.0026838868        0.0013034716        7.6221912466
O         0.0012780995        3.7816782467        1.9927774120
O         1.8842757145       13.2360986927        6.7995053659
O        11.3490444207        1.8844441515        4.3947386096
O         5.6727844371        0.0012744491        9.2044047855
O         1.8846853874        3.7816957542        5.2191659299
O         0.0013204290       13.2360701197        0.4109375462
O         5.6728110799        1.8847490281        2.8150218294
O        11.3491027439        0.0012803675        7.6232629094
O         3.7816711996        0.0012836909        7.6222458757
O        13.2361074434        1.8842771360        2.8155180909
O        13.2360628634        0.0013098294        9.2040954558
O         3.7816999689        1.8846902061        4.3958600982
O         1.8847910728        5.6727948180        6.7999996447
O         0.0012792604       11.3491013132        1.9917514700
O         0.0012956490        5.6727988456        0.4106122070
O         1.8844143125       11.3490589436        5.2202782274
O         0.0012753731        7.5661889696        1.9931297650
O         1.8846670105        9.4572113824        6.7995873621
O         7.5661875078        1.8847604233        4.3962293561
O         9.4572263871        0.0012789011        9.2040266716
O         1.8847367452        7.5661839921        5.2187961923
O         0.0012822281        9.4572174079        0.4109980927
O         9.4572057555        1.8846636029        2.8154337647
O         7.5662055455        0.0012809414        7.6219001040
O         3.7750548337        0.0026272278        1.9915290434
O        13.2372081805        1.8897167790        6.7992796945
O         0.0026161407        5.6705623924        4.3949780732
O         1.8897699267       11.3542223196        9.2023056222
O        13.2371480703        0.0026798153        5.2184272043
O         3.7751717080        1.8898384115        0.4131530147
O         1.8898491374        5.6705993528        2.8171647837
O         0.0026485338       11.3544270821        7.6229767701
O        11.3542388201        1.8897760173        0.4127116396
O         5.6705428834        0.0026262169        5.2200285376
O         5.6706048132        1.8898363759        6.7978459501
O        11.3544375811        0.0026513962        1.9920423853
O         1.8898290926        3.7751661136        9.2018701724
O         0.0026854680       13.2371311697        4.3966039770
O         0.0026222190        3.7750412553        7.6234940459
O         1.8897159133       13.2372291149        2.8157305575
O         3.7752661508        3.7817106607        1.9918258871
O        13.2371761863       13.2360790155        6.8003195465
O        11.3489784466        5.6705735082        4.3940632793
O         5.6728020100       11.3539152028        9.2037665277
O        13.2372096934        3.7816777941        5.2184901903
O         3.7750555602       13.2361357578        0.4122421676
O         5.6728052489        5.6706016819        2.8154123761
O        11.3490568929       11.3542626199        7.6240066275
O        11.3544315701       13.2360967808        0.4117286811
O         5.6705822181        3.7817266264        5.2196551405
O         3.7817007747       11.3540159511        7.6229029564
O        13.2361392019        5.6705802637        2.8162949778
O         5.6705884296       13.2361485452        6.7987362447
O        11.3540068253        3.7816851504        1.9921193333
O        13.2361021522       11.3544224858        9.2032954852
O         3.7817081451        5.6705898357        4.3953802009
O         5.6706115866        5.6728149525        6.7996138657
O        11.3542292551       11.3490536999        1.9910124999
O        13.2361319949        3.7750736138        9.2027867473
O         3.7816873291       13.2371693346        4.3965366969
O        11.3539303826        5.6727931611        0.4112557523
O         5.6705495880       11.3489931217        5.2209590588
O         3.7817182173        3.7752507464        7.6232030828
O        13.2360770742       13.2371939827        2.8146903777
O        13.2371768746       11.3491052567        5.2195074907
O         3.7753068947        5.6728068195        0.4114828735
O         5.6727948920       13.2372575898        2.8143802454
O        11.3489986655        3.7751332785        7.6244435373
O         3.7751331940       11.3489916999        1.9905760005
O        13.2372320783        5.6727947553        6.8006455009
O        11.3491030930       13.2371696993        4.3955174694
O         5.6728156428        3.7753138227        9.2035403396
O         3.7752795449        7.5661739738        1.9922503042
O        13.2372432865        9.4572216559        6.8002647330
O         7.5661958594        5.6705816432        4.3958381498
O         9.4572061246       11.3540074859        9.2033597371
O        13.2372166998        7.5661978725        5.2181509244
O         3.7752526474        9.4572024719        0.4119697923
O         9.4572012083        5.6706073923        2.8159219316
O         7.5661801499       11.3539398395        7.6225325482
O        11.3540227540        9.4572169646        0.4116667983
O         5.6705677264        7.5661797976        5.2191781112
O         5.6706142277        9.4571851472        6.7990933571
O        11.3539160537        7.5661890736        1.9924915279
O         9.4571792382        3.7752669509        9.2030527355
O         7.5662044969       13.2371841260        4.3968763795
O         7.5661657330        3.7752853304        7.6227560497
O         9.4572243802       13.2372558170        2.8147586386
O         7.5686609963        0.0026140992        1.9912387338
O         9.4637954097        1.8898324189        6.7981248519
O         0.0026530576        9.4638883639        4.3952920767
O         1.8898540984        7.5686208485        9.2016179733
O         9.4638780817        0.0026387927        5.2197309272
O         7.5686273898        1.8898411835        0.4134083746
O         1.8898305155        9.4638041533        2.8168957393
O         0.0026212247        7.5686597187        7.6237739066
O         7.5686062927        3.7817177290        1.9916278033
O         9.4639000664       13.2361196406        6.7990273015
O        11.3490086568        9.4637769618        4.3943365058
O         5.6728036077        7.5686260040        9.2033708340
O         9.4636761567        3.7817177454        5.2194443485
O         7.5686418438       13.2361445986        0.4125121488
O         5.6727949495        9.4636331887        2.8152376783
O        11.3489724184        7.5686333529        7.6246875559
O         3.7817085306        7.5686202417        7.6233939491
O        13.2361396904        9.4639030292        2.8159890373
O        13.2361320025        7.5686434564        9.2024997287
O         3.7817290089        9.4636707278        4.3955810393
O         9.4636407795        5.6727975398        6.7997838118
O         7.5686436773       11.3489788547        1.9903236964
O         7.5686236945        5.6728130601        0.4116457275
O         9.4637679025       11.3489971410        5.2206845649
O         7.5686226888        7.5661832047        1.9921095558
O         9.4636880585        9.4571945669        6.7993100352
O         7.5661740062        9.4636050081        4.3960088137
O         9.4571987377        7.5686229883        9.2028702682
O         9.4635948785        7.5662011464        5.2190133183
O         7.5686226772        9.4571868511        0.4121606832
O         9.4571927078        9.4636720230        2.8157135259
O         7.5661847044        7.5686170594        7.6229169799
     192
 i =        2, E =     -5781.5357323670
Ti         0.0005849539        0.0005732953        0.0000056559
Ti         1.8904936122        1.8905033335        4.8075081707
Ti         0.0005800589        1.8904136049        2.4016204497
Ti         1.8904209991        0.0005802453        7.2133997705
Ti         0.0005872833        3.7785891895        0.0027908960
Ti         1.8904412173       13.2380466523        4.8053489844
Ti        11.3482626090        1.8904894980        2.4036916361
Ti         5.6728644320        0.0005902595        7.2153313436
Ti         1.8905791153        3.7786519517        7.2105938576
Ti         0.0005880594       13.2380243682        2.4037871028
Ti         5.6728958395        1.8906317268        4.8055863735
Ti        11.3483148391        0.0005723461       -0.0020857781
Ti         3.7785973454        0.0005922684       -0.0027875905
Ti        13.2380436974        1.8904325930        4.8096684150
Ti        13.2380310663        0.0005800515        7.2112453632
Ti         3.7786554357        1.8905875064        2.4044210339
Ti         1.8906234557        5.6729007532        4.8094276383
Ti         0.0005715067       11.3483217757        0.0020764215
Ti         0.0005863261        5.6728679820        2.3996752722
Ti         1.8904944032       11.3482605175        7.2113164290
Ti         0.0005887573        7.5662155901        0.0040429701
Ti         1.8906085677        9.4602949291        4.8081000997
Ti         7.5662080875        1.8906217727        2.4056478851
Ti         9.4603277974        0.0005939808        7.2139877708
Ti         1.8906213345        7.5661986213        7.2093782823
Ti         0.0006024453        9.4603281872        2.4010399991
Ti         9.4602916530        1.8906011462        4.8069178392
Ti         7.5662049033        0.0005890387       -0.0040327818
Ti         3.7787057420        3.7787164678        0.0000073603
Ti        13.2380429513       13.2380501147        4.8075180409
Ti        11.3481486477        5.6728862946        2.4017689953
Ti         5.6728912803       11.3481351694        7.2132535414
Ti        13.2380304347        3.7786101575        7.2084610052
Ti         3.7786137881       13.2380280788        2.4065695481
Ti         5.6729395986        5.6729482466        4.8075099640
Ti        11.3482571715       11.3482632513        0.0000019954
Ti        11.3483329869       13.2380364414        2.4058567215
Ti         5.6729081557        3.7787270019        7.2124502103
Ti         3.7786406952       11.3481728566       -0.0007218916
Ti        13.2380520925        5.6728762730        4.8116098677
Ti         5.6728895591       13.2380536817        4.8034204050
Ti        11.3481612573        3.7786369733        0.0007240122
Ti        13.2380435604       11.3483171597        7.2091635429
Ti         3.7787219151        5.6729197604        2.4025789223
Ti         3.7787195338        7.5661716822        0.0011515022
Ti        13.2380583396        9.4603427913        4.8102513955
Ti         7.5661618031        5.6729263407        2.4037178575
Ti         9.4602901094       11.3481721479        7.2119135190
Ti        13.2380447047        7.5662146555        7.2072075166
Ti         3.7787254125        9.4602153707        2.4038242907
Ti         9.4602243520        5.6729398241        4.8087550336
Ti         7.5661995886       11.3481457187       -0.0019524731
Ti        11.3481831743        9.4602834863        2.4030972891
Ti         5.6729241945        7.5661547443        7.2112862736
Ti         5.6729486594        9.4602295474        4.8062474964
Ti        11.3481384661        7.5661961929        0.0019442604
Ti         9.4602137728        3.7787131963        7.2111899014
Ti         7.5662210032       13.2380447875        2.4078138034
Ti         7.5661599913        3.7787169230       -0.0011533675
Ti         9.4603449787       13.2380607932        4.8047700610
Ti         7.5661479487        7.5661556137       -0.0000009320
Ti         9.4602526352        9.4602459929        4.8075117394
Ti         7.5661774912        9.4602128307        2.4049654643
Ti         9.4602079454        7.5661691281        7.2100511507
O         0.0010808302        0.0017742372        1.9926645642
O         1.8840535128        1.8890595432        6.7976515536
O         0.0018189458        1.8839655190        4.3956700368
O         1.8889989903        0.0011302229        9.2021369771
O         1.8839664364        0.0018233153        5.2193519352
O         0.0011293146        1.8889954461        0.4128831648
O         1.8890489089        1.8840473312        2.8173714100
O         0.0017751393        0.0010859987        7.6223591673
O         0.0011488095        3.7787617953        1.9931759137
O         1.8839805719       13.2367696925        6.7994009489
O        11.3496643336        1.8840458045        4.3938370381
O         5.6715761700        0.0011786246        9.2052278127
O         1.8840407861        3.7788337342        5.2187372768
O         0.0010908696       13.2368040006        0.4111109628
O         5.6716188558        1.8840870139        2.8141864058
O        11.3497100329        0.0011218025        7.6241990421
O         3.7787499921        0.0011528435        7.6218444732
O        13.2367706279        1.8839751287        2.8156282473
O        13.2368042457        0.0010869570        9.2039070959
O         3.7788357034        1.8840538257        4.3962809434
O         1.8840987717        5.6715936125        6.8008412183
O         0.0011203550       11.3497139215        1.9908180230
O         0.0011818869        5.6715938939        0.4097901611
O         1.8840478087       11.3496659778        5.2211769839
O         0.0011736148        7.5675311937        1.9939287871
O         1.8840594080        9.4601064931        6.7999690675
O         7.5675177811        1.8840920362        4.3970446309
O         9.4601792530        0.0011506700        9.2043844330
O         1.8840827603        7.5675125598        5.2179833059
O         0.0011532784        9.4601581205        0.4106451173
O         9.4600924506        1.8840468045        2.8150532245
O         7.5675491231        0.0011774853        7.6211017670
O         3.7679748980        0.0018987167        1.9915976428
O        13.2372994222        1.8889898043        6.7983691055
O         0.0019306478        5.6653973634        4.3946008038
O         1.8890432236       11.3544466416        9.2014342496
O        13.2373267577        0.0017766785        5.2185938263
O         3.7682177906        1.8891726163        0.4138363326
O         1.8892126478        5.6655019376        2.8182391471
O         0.0018079981       11.3545260621        7.6230713390
O        11.3544487814        1.8890495368        0.4135745415
O         5.6653697372        0.0019269830        5.2204053809
O         5.6655167059        1.8892002671        6.7967726137
O        11.3545207841        0.0018168886        1.9919496581
O         1.8891641390        3.7682155007        9.2011846651
O         0.0017773600       13.2373242380        4.3964186814
O         0.0018910885        3.7679683674        7.6234216259
O         1.8889960593       13.2373132214        2.8166492838
O         3.7684026956        3.7789541101        1.9925071941
O        13.2373384771       13.2368160530        6.8001394248
O        11.3495160203        5.6654614345        4.3929522985
O         5.6716014501       11.3544169700        9.2046209064
O        13.2372609250        3.7787635163        5.2180936989
O         3.7679849443       13.2366956684        0.4121842991
O         5.6716523842        5.6655263017        2.8144608669
O        11.3496773682       11.3544543908        7.6249013175
O        11.3545159232       13.2367626508        0.4118280449
O         5.6654706400        3.7790212872        5.2191847905
O         3.7788291325       11.3544644219        7.6224667010
O        13.2366631236        5.6654382368        2.8166836882
O         5.6654588234       13.2366824411        6.7983392471
O        11.3544561815        3.7788136615        1.9925574803
O        13.2367733804       11.3545131836        9.2031925731
O         3.7790049273        5.6654875418        4.3958439383
O         5.6655395949        5.6716719062        6.8005652914
O        11.3544438488       11.3496744742        1.9901258175
O        13.2367020575        3.7679987099        9.2028390743
O         3.7787563974       13.2372499499        4.3969285988
O        11.3544263813        5.6715906061        0.4104052244
O         5.6654195839       11.3495225717        5.2220755540
O         3.7789732693        3.7683889120        7.6225262881
O        13.2368120195       13.2373396899        2.8148836053
O        13.2372864595       11.3497125337        5.2204484567
O         3.7685363176        5.6716406431        0.4104027425
O         5.6715942315       13.2372600167        2.8135563593
O        11.3495602022        3.7681815878        7.6251640610
O         3.7681861954       11.3495671703        1.9898617187
O        13.2372512984        5.6715852827        6.8014681155
O        11.3497159680       13.2372811060        4.3945724943
O         5.6716554495        3.7685400053        9.2046223010
O         3.7685061559        7.5674704905        1.9933098140
O        13.2372779635        9.4601733696        6.8006167299
O         7.5674784488        5.6654803380        4.3967617755
O         9.4600993816       11.3544577050        9.2037439747
O        13.2372427422        7.5675378138        5.2173522382
O         3.7683932441        9.4599720391        0.4113346038
O         9.4599266487        5.6655159616        2.8155067089
O         7.5675091902       11.3544307126        7.6217049806
O        11.3544719381        9.4601126398        0.4112761827
O         5.6654546734        7.5674539744        5.2182555483
O         5.6655363910        9.4599134298        6.7995064799
O        11.3544263578        7.5675208454        1.9933134269
O         9.4599528966        3.7684005243        9.2036807840
O         7.5675426338       13.2372288580        4.3976749418
O         7.5674544361        3.7685066630        7.6216998608
O         9.4601760193       13.2372900808        2.8144115318
O         7.5742738858        0.0019239627        1.9908698623
O         9.4705112031        1.8891681612        6.7974525584
O         0.0019001852        9.4707199636        4.3953741554
O         1.8892152706        7.5741710388        9.2005527724
O         9.4707121990        0.0018948145        5.2196461146
O         7.5741817424        1.8892051739        0.4144653587
O         1.8891692493        9.4705136003        2.8175698104
O         0.0019298928        7.5742678268        7.6241441681
O         7.5741432948        3.7790159749        1.9921030733
O         9.4707348992       13.2366997348        6.7990982595
O        11.3495661651        9.4704955620        4.3936305322
O         5.6716483742        7.5741616694        9.2043284021
O         9.4703017813        3.7789556418        5.2187568132
O         7.5742409359       13.2366663915        0.4128944931
O         5.6716359598        9.4701865120        2.8141476537
O        11.3495124442        7.5741896642        7.6257912391
O         3.7790051718        7.5741700286        7.6229121720
O        13.2367124408        9.4707388659        2.8159170936
O        13.2366565790        7.5742429514        9.2021130862
O         3.7789564886        9.4702965814        4.3962626203
O         9.4701911729        5.6716378510        6.8008680482
O         7.5742032819       11.3495171863        1.9892220264
O         7.5741571339        5.6716681253        0.4106936215
O         9.4704876901       11.3495471849        5.2213832863
O         7.5741463319        7.5674636139        1.9930331102
O         9.4703280676        9.4599891705        6.7999487436
O         7.5674546597        9.4701691900        4.3970658682
O         9.4599235670        7.5741692851        9.2032842195
O         9.4701543215        7.5674902616        5.2179543187
O         7.5741658649        9.4599099420        0.4117406848
O         9.4599796592        9.4703208299        2.8150838144
O         7.5674734955        7.5741430996        7.6219960360
     192
 i =        3, E =     -5781.5360432422
Ti         0.0006880166        0.0006790458        0.0000031796
Ti         1.8888775925        1.8888841793        4.8075069455
Ti         0.0007144878        1.8888096772        2.4020381160
Ti         1.8888205525        0.0007110232        7.2129847812
Ti         0.0007555524        3.7757013036        0.0028914128
Ti         1.8888393762       13.2378279700        4.8057640356
Ti        11.3498041703        1.8888716555        2.4036974965
Ti         5.6712378456        0.0007870490        7.2159760792
Ti         1.8889564245        3.7757742065        7.2100422016
Ti         0.0006916179       13.2378364027        2.4037882137
Ti         5.6712670764        1.8890456541        4.8044842535
Ti        11.3498411924        0.0007050568       -0.0016734850
Ti         3.7757081848        0.0007604256       -0.0028887676
Ti        13.2378259951        1.8888291161        4.8092535481
Ti        13.2378463923        0.0006867378        7.2112472269
Ti         3.7757813148        1.8889630981        2.4049731771
Ti         1.8890391172        5.6712736235        4.8105299911
Ti         0.0007035424       11.3498520019        0.0016631507
Ti         0.0007861224        5.6712397273        2.3990319353
Ti         1.8888802953       11.3498003394        7.2113156388
Ti         0.0007892740        7.5679820890        0.0046516025
Ti         1.8889845197        9.4631499415        4.8086218486
Ti         7.5679712876        1.8890362293        2.4067152594
Ti         9.4631957346        0.0007589242        7.2140581654
Ti         1.8890351246        7.5679623884        7.2083093663
Ti         0.0007622322        9.4631982458        2.4009708706
Ti         9.4631473213        1.8889803745        4.8063956846
Ti         7.5679717825        0.0007889982       -0.0046424819
Ti         3.7758781127        3.7758873184        0.0000045771
Ti        13.2378594094       13.2378638183        4.8075171808
Ti        11.3496603807        5.6712635011        2.4006702810
Ti         5.6712670217       11.3496450112        7.2143501080
Ti        13.2377744886        3.7757192606        7.2083607595
Ti         3.7757245438       13.2377722149        2.4066678846
Ti         5.6713309452        5.6713390519        4.8075086311
Ti        11.3497973549       11.3498029389        0.0000007439
Ti        11.3498571433       13.2378199466        2.4054460900
Ti         5.6712835687        3.7759370189        7.2129583459
Ti         3.7757629556       11.3497217645       -0.0012686367
Ti        13.2377679924        5.6712458312        4.8122501748
Ti         5.6712560244       13.2377696784        4.8027770252
Ti        11.3497099330        3.7757609086        0.0012693313
Ti        13.2378268483       11.3498426507        7.2095771527
Ti         3.7759316415        5.6712925829        2.4020674845
Ti         3.7759291749        7.5679351286        0.0016335170
Ti        13.2378043481        9.4632123684        4.8103200475
Ti         7.5679043246        5.6713236091        2.4036908721
Ti         9.4631440357       11.3497177180        7.2124300557
Ti        13.2377606803        7.5679839108        7.2065980436
Ti         3.7758916472        9.4630224076        2.4038542784
Ti         9.4629890380        5.6713093490        4.8093001775
Ti         7.5679597611       11.3496600619       -0.0030174664
Ti        11.3497271932        9.4631377289        2.4025803683
Ti         5.6713202673        7.5678984905        7.2113141310
Ti         5.6713165287        9.4629965590        4.8057047499
Ti        11.3496531385        7.5679560389        0.0030073082
Ti         9.4630184815        3.7758840204        7.2111588111
Ti         7.5679907395       13.2377608165        2.4084240139
Ti         7.5679238585        3.7759297991       -0.0016363608
Ti         9.4632139558       13.2378117798        4.8046988418
Ti         7.5678910359        7.5678994057       -0.0000021781
Ti         9.4630591855        9.4630560567        4.8075095757
Ti         7.5679470368        9.4629774032        2.4054810200
Ti         9.4629747889        7.5679361628        7.2095343624
O         0.0014048777        0.0016772533        1.9921328132
O         1.8845620285        1.8876300416        6.7978477227
O         0.0016920206        1.8844522106        4.3964469269
O         1.8875648353        0.0014614093        9.2010801057
O         1.8844540779        0.0016920000        5.2185772728
O         0.0014587985        1.8875656115        0.4139447124
O         1.8876264112        1.8845651173        2.8171709960
O         0.0016800820        0.0014019202        7.6228863727
O         0.0014535384        3.7766708792        1.9917249324
O         1.8844513666       13.2368222857        6.8002034834
O        11.3510262669        1.8845643429        4.3941041338
O         5.6708698972        0.0014372754        9.2048711436
O         1.8845486453        3.7767167581        5.2188857733
O         0.0014012775       13.2368321748        0.4116152194
O         5.6709104009        1.8845325873        2.8132617196
O        11.3510862518        0.0014596875        7.6251917260
O         3.7766660162        0.0014547204        7.6232906718
O        13.2368235146        1.8844512395        2.8148197607
O        13.2368309831        0.0014001823        9.2034018711
O         3.7767195421        1.8845552390        4.3961295290
O         1.8845292672        5.6708867272        6.8017646593
O         0.0014640777       11.3510891803        1.9898251284