     192
 i =        1, E =     -5781.5351872652
Ti         0.0006657192        0.0006637411       -0.0000002216
Ti        -0.0007235409       -0.0007225756        0.0000016437
Ti         0.0006667895       -0.0007460289       -0.0005901584
Ti        -0.0007469449        0.0006675615        0.0005921477
Ti         0.0006703397       -0.0012032125        0.0002850025
Ti        -0.0007482623       -0.0007144334       -0.0005899435
Ti         0.0007094482       -0.0007287249        0.0000013212
Ti        -0.0002445132        0.0006734882        0.0004130528
Ti        -0.0006985215       -0.0011946227        0.0002992560
Ti         0.0006656987       -0.0007126942        0.0000008584
Ti        -0.0002504771       -0.0006816586        0.0001774797
Ti         0.0007307464        0.0006654640       -0.0005879109
Ti        -0.0012049911        0.0006694948       -0.0002822165
Ti        -0.0007118742       -0.0007452182        0.0005950398
Ti        -0.0007101589        0.0006662941       -0.0000031701
Ti        -0.0011917812       -0.0007026703       -0.0002977576
Ti        -0.0006823850       -0.0002466457       -0.0001767226
Ti         0.0006674983        0.0007306152        0.0005897723
Ti         0.0006733809       -0.0002446924       -0.0004108060
Ti        -0.0007306749        0.0007086871       -0.0000002294
Ti         0.0006742571        0.0002897145        0.0004118782
Ti        -0.0007058119        0.0012076511       -0.0003013955
Ti         0.0002929007       -0.0006858494       -0.0001765069
Ti         0.0012151482        0.0006691191        0.0002798513
Ti        -0.0006858828        0.0002947339        0.0001745931
Ti         0.0006703356        0.0012170736       -0.0002773806
Ti         0.0012085489       -0.0006981457        0.0003042413
Ti         0.0002900352        0.0006723792       -0.0004135128
Ti        -0.0011760320       -0.0011742610       -0.0000015224
Ti        -0.0007069466       -0.0007087961        0.0000027342
Ti         0.0006646855       -0.0002464499        0.0001755745
Ti        -0.0002480470        0.0006654867       -0.0001754894
Ti        -0.0007130198       -0.0012095853       -0.0002887312
Ti        -0.0012049749       -0.0007115017        0.0002852923
Ti        -0.0002491972       -0.0002511411       -0.0000013897
Ti         0.0007102334        0.0007097751       -0.0000000279
Ti         0.0007293622       -0.0007102018        0.0005920125
Ti        -0.0002496088       -0.0011649850        0.0001125615
Ti        -0.0011960616        0.0006817771        0.0002987975
Ti        -0.0007131184       -0.0002433070        0.0004114395
Ti        -0.0002454959       -0.0007132098       -0.0004124045
Ti         0.0006829176       -0.0011938255       -0.0002977534
Ti        -0.0007100916        0.0007301355       -0.0005949837
Ti        -0.0011646762       -0.0002519972       -0.0001135281
Ti        -0.0011663672        0.0002938504        0.0001136790
Ti        -0.0007104030        0.0012185000        0.0002821271
Ti         0.0002967287       -0.0002473162        0.0000023652
Ti         0.0012063351        0.0006833850       -0.0003052209
Ti        -0.0007137432        0.0002937592       -0.0004180679
Ti        -0.0011784359        0.0011895147        0.0000011181
Ti         0.0011762031       -0.0002481039        0.0001172313
Ti         0.0002928970        0.0006653812        0.0001725076
Ti         0.0006816708        0.0012035844        0.0003043254
Ti        -0.0002491678        0.0002954932        0.0000001750
Ti        -0.0002472030        0.0011769467       -0.0001140315
Ti         0.0006632029        0.0002938738       -0.0001716643
Ti         0.0011852433       -0.0011760612       -0.0000058763
Ti         0.0002937729       -0.0007118817        0.0004150451
Ti         0.0002930061       -0.0011638890       -0.0001161529
Ti         0.0012197286       -0.0007135259       -0.0002806394
Ti         0.0002952094        0.0002947395        0.0000012370
Ti         0.0011906489        0.0011871357       -0.0000011681
Ti         0.0003017461        0.0011707828        0.0001192958
Ti         0.0011750656        0.0002969783       -0.0001219344
O        -0.0001360832        0.0000401744       -0.0001927404
O         0.0004402530        0.0002861883        0.0000570484
O         0.0000614077        0.0004740133        0.0001575476
O         0.0003080079       -0.0001278205       -0.0002639498
O         0.0004780042        0.0000565413       -0.0001582092
O        -0.0001298929        0.0003079620        0.0002657065
O         0.0002897814        0.0004429955       -0.0000586442
O         0.0000353551       -0.0001391453        0.0001941085
O        -0.0001227927       -0.0006385720       -0.0002320135
O         0.0004774357       -0.0000691535        0.0001612103
O        -0.0003084286        0.0004473024        0.0000641944
O        -0.0001358106       -0.0001170038       -0.0003995343
O         0.0003880832       -0.0006358094       -0.0000769435
O        -0.0001424358       -0.0000479817        0.0001902666
O        -0.0001366524        0.0003803735        0.0000983492
O        -0.0003265596       -0.0001274681        0.0002604095
O        -0.0006367514       -0.0001234702        0.0002294244
O        -0.0000749711        0.0004761788       -0.0001631252
O        -0.0000443749       -0.0001405114       -0.0001944750
O        -0.0006366089        0.0003891019        0.0000738846
O         0.0003721978       -0.0001359997       -0.0000978110
O        -0.0001274610       -0.0003237849       -0.0002587483
O        -0.0001215887       -0.0001373491        0.0003991729
O         0.0004548658       -0.0003140250       -0.0000650654
O        -0.0001180777        0.0001548459       -0.0003980630
O         0.0003956609        0.0006297216        0.0000823818
O         0.0001527288        0.0003784473       -0.0000956247
O         0.0006327268       -0.0001226552       -0.0002253078
O         0.0003826452        0.0001523152        0.0000955798
O        -0.0001230645        0.0006311139        0.0002249203
O         0.0006291308        0.0003943467       -0.0000833141
O         0.0001528571       -0.0001187493        0.0003961387
O        -0.0006081447        0.0000981805        0.0002244116
O         0.0001464537        0.0003059595       -0.0002674268
O         0.0001185916       -0.0006184434        0.0002428119
O         0.0002914960       -0.0004595049        0.0000517625
O         0.0001656186        0.0000365897        0.0001983814
O        -0.0005962783        0.0002964320       -0.0001247178
O         0.0003182957       -0.0006097832       -0.0001566921
O         0.0000620514       -0.0004960253       -0.0001499809
O        -0.0004631251        0.0002898663       -0.0000532500
O        -0.0006183031        0.0001132181       -0.0002413330
O        -0.0006086437        0.0003215674        0.0001581002
O        -0.0004993883        0.0000619417        0.0001498241
O         0.0002989042       -0.0005953203        0.0001248776
O         0.0000352596        0.0001693123       -0.0002032255
O         0.0000984641       -0.0006059123       -0.0002250644
O         0.0003082114        0.0001437175        0.0002707072
O        -0.0005884300       -0.0006135080        0.0001602673
O         0.0001607902       -0.0000492403       -0.0001923235
O        -0.0003360246       -0.0006103330        0.0001626342
O        -0.0001360008       -0.0003900764       -0.0000991126
O         0.0001399973       -0.0006366896        0.0002349898
O        -0.0006066226       -0.0001105511       -0.0002276086
O        -0.0001242509       -0.0006059886       -0.0001040307
O        -0.0003107400       -0.0004679356       -0.0000592857
O        -0.0004987733       -0.0000709565       -0.0001554904
O        -0.0006106886       -0.0005934577       -0.0002463031
O        -0.0006367922       -0.0004065717       -0.0000733421
O        -0.0001282706       -0.0006159376       -0.0002450310
O        -0.0006144797       -0.0001277069        0.0002416633
O        -0.0004057284       -0.0006358467        0.0000727102
O        -0.0000714623       -0.0004970556        0.0001553311
O        -0.0005900383       -0.0006097279        0.0002427498
O        -0.0006061795       -0.0001234404        0.0001046296
O        -0.0004616169       -0.0003081298        0.0000613841
O        -0.0001073266       -0.0006086659        0.0002267411
O        -0.0006416050        0.0001479025       -0.0002361619
O        -0.0003921629       -0.0001363933        0.0000996650
O        -0.0006115218       -0.0003427556       -0.0001617868
O        -0.0006131603       -0.0005870022       -0.0001595092
O        -0.0000505381        0.0001567231        0.0001952464
O         0.0001517740       -0.0003294010        0.0002645686
O        -0.0005760121       -0.0001299178        0.0000116823
O        -0.0001353758        0.0001283372        0.0003999115
O        -0.0003168933       -0.0005930046       -0.0001291110
O        -0.0005922498       -0.0003122885        0.0001317476
O         0.0001330503       -0.0001373735       -0.0003998520
O        -0.0003281606        0.0001526399       -0.0002655415
O        -0.0001298803       -0.0005770922       -0.0000103627
O        -0.0005744452        0.0001482429       -0.0000072971
O         0.0001347168        0.0006336013       -0.0002267713
O         0.0001365818       -0.0006088451        0.0001046766
O         0.0006291843       -0.0004056372        0.0000794497
O         0.0001353145        0.0001511567        0.0003988739
O        -0.0005867281        0.0006030214       -0.0001667338
O         0.0005798902       -0.0006092675       -0.0002486354
O         0.0001534441       -0.0003937350        0.0000989968
O        -0.0004069273        0.0006282811       -0.0000814535
O        -0.0006097620        0.0001389680       -0.0001049699
O        -0.0006075150        0.0005841920        0.0002481203
O        -0.0003886953        0.0001531923       -0.0001009637
O         0.0006079945       -0.0005889822        0.0001664914
O         0.0001498501        0.0001408523       -0.0003996133
O         0.0001474851       -0.0005757543        0.0000110697
O         0.0006321408        0.0001337233        0.0002269413
O         0.0006676821        0.0001189649        0.0002434017
O         0.0005508445        0.0002960235        0.0001215628
O         0.0000860819        0.0005627698        0.0002217643
O         0.0003166213        0.0006601183        0.0001586961
O         0.0005639334        0.0000900981       -0.0002228258
O         0.0006603409        0.0003211862       -0.0001598253
O         0.0002997639        0.0005491096       -0.0001212385
O         0.0001175874        0.0006669585       -0.0002403484
O         0.0006588446       -0.0005921686        0.0002441702
O         0.0005624305       -0.0001002287        0.0002272023
O        -0.0003199868        0.0005527002        0.0001282778
O        -0.0001238328        0.0006570165        0.0001030374
O         0.0005448914       -0.0006186035       -0.0001558769
O         0.0006668241       -0.0001312281       -0.0002425570
O        -0.0001283289        0.0005360717        0.0000151021
O        -0.0003329705        0.0006601772       -0.0001598694
O        -0.0005889749        0.0006599333       -0.0002455892
O        -0.0001073531        0.0005623848       -0.0002268629
O        -0.0001250892        0.0006667461        0.0002441895
O        -0.0006215459        0.0005453134        0.0001546141
O         0.0005350434       -0.0001280456       -0.0000167433
O         0.0006599599       -0.0003337967        0.0001618935
O         0.0006568147       -0.0001231815       -0.0001020407
O         0.0005535251       -0.0003187688       -0.0001286863
O         0.0006552280        0.0001401047        0.0000984244
O         0.0005463935        0.0006109245        0.0001615293
O         0.0001418127        0.0005400028       -0.0000157214
O         0.0005805679        0.0006591428        0.0002456847
O         0.0005399352        0.0001410432        0.0000160280
O         0.0006586438        0.0005825550       -0.0002476825
O         0.0006077322        0.0005490873       -0.0001596500
O         0.0001401831        0.0006560705       -0.0000985971
     192
 i =        2, E =     -5781.5357323670
Ti         0.0000642086        0.0000663432       -0.0000022016
Ti        -0.0005345587       -0.0005368785        0.0000004148
Ti         0.0000644076       -0.0005336944        0.0004989211
Ti        -0.0005366934        0.0000651019       -0.0004999104
Ti         0.0000683667       -0.0010797872        0.0000282282
Ti        -0.0005375903       -0.0000775658        0.0004905072
Ti         0.0005042413       -0.0005389558       -0.0000162045
Ti        -0.0006962535        0.0000630593       -0.0000762566
Ti        -0.0005360527       -0.0010785838       -0.0005241461
Ti         0.0000648652       -0.0000793341        0.0000089960
Ti        -0.0006895300       -0.0005457539       -0.0004348117
Ti         0.0005061353        0.0000643551        0.0005205914
Ti        -0.0010834884        0.0000676968       -0.0000257652
Ti        -0.0000793602       -0.0005362246       -0.0004875668
Ti        -0.0000790356        0.0000677046       -0.0000087595
Ti        -0.0010771471       -0.0005393030        0.0005285143
Ti        -0.0005467019       -0.0006901962        0.0004368420
Ti         0.0000653710        0.0005035113       -0.0005170611
Ti         0.0000629618       -0.0006976549        0.0000799096
Ti        -0.0005374194        0.0005048606        0.0000208832
Ti         0.0000621481        0.0007561152       -0.0000796827
Ti        -0.0005381687        0.0010585217        0.0005166368
Ti         0.0007455797       -0.0005466101        0.0004357400
Ti         0.0010654585        0.0000665371        0.0000160509
Ti        -0.0005476213        0.0007469208       -0.0004391467
Ti         0.0000666221        0.0010651704       -0.0000171992
Ti         0.0010603579       -0.0005379770       -0.0005151947
Ti         0.0007590103        0.0000627386        0.0000742370
Ti        -0.0010656548       -0.0010679842       -0.0000021013
Ti        -0.0000794136       -0.0000819591       -0.0000012618
Ti         0.0005143249       -0.0006884095       -0.0004536268
Ti        -0.0006897276        0.0005161033        0.0004508687
Ti        -0.0000824750       -0.0010877183       -0.0000387566
Ti        -0.0010860517       -0.0000799008        0.0000370759
Ti        -0.0006840928       -0.0006873934       -0.0000021734
Ti         0.0005059164        0.0005046933       -0.0000017252
Ti         0.0005034971       -0.0000766952       -0.0005070023
Ti        -0.0006800721       -0.0010740125       -0.0000726001
Ti        -0.0010783379        0.0005068341       -0.0005448396
Ti        -0.0000801971       -0.0006979073       -0.0000734883
Ti        -0.0007009411       -0.0000799817        0.0000711695
Ti         0.0005062224       -0.0010766060        0.0005418498
Ti        -0.0000790820        0.0005063681        0.0005067197
Ti        -0.0010724481       -0.0006832327        0.0000687175
Ti        -0.0010719206        0.0007393642       -0.0000684541
Ti        -0.0000832708        0.0010647374        0.0000248698
Ti         0.0007426732       -0.0006808505        0.0000029271
Ti         0.0010601235        0.0005065679        0.0005340696
Ti        -0.0000804295        0.0007592587        0.0000688430
Ti        -0.0010715687        0.0010521326        0.0000113561
Ti         0.0010552585       -0.0006832696       -0.0000557750
Ti         0.0007460548        0.0005129539       -0.0004538535
Ti         0.0005063641        0.0010613368       -0.0005317108
Ti        -0.0006819207        0.0007443008        0.0000025819
Ti        -0.0006876120        0.0010544388        0.0000629508
Ti         0.0005145827        0.0007470262        0.0004555573
Ti         0.0010493401       -0.0010673252       -0.0000097607
Ti         0.0007592816       -0.0000805200       -0.0000690976
Ti         0.0007399430       -0.0010706660        0.0000684333
Ti         0.0010659785       -0.0000867845       -0.0000248319
Ti         0.0007441129        0.0007426372       -0.0000007414
Ti         0.0010462620        0.0010479526       -0.0000021359
Ti         0.0007409594        0.0010541683       -0.0000558770
Ti         0.0010562656        0.0007411936        0.0000551089
O         0.0000268016        0.0000234573       -0.0002173261
O         0.0003114460        0.0000086335        0.0004332916
O         0.0000025379        0.0003078405        0.0001394105
O         0.0000219375        0.0000251023        0.0000970201
O         0.0003075363        0.0000007475       -0.0001394930
O         0.0000250879        0.0000237228       -0.0000957179
O         0.0000139781        0.0003128791       -0.0004348145
O         0.0000242912        0.0000256221        0.0002172030
O         0.0000194349        0.0002338885       -0.0005767737
O         0.0003043651        0.0000238803        0.0001500264
O        -0.0000058076        0.0003126043        0.0004617817
O         0.0000938452        0.0000101264       -0.0005121382
O         0.0003171613        0.0002141047        0.0002378738
O         0.0000249085        0.0000025708        0.0002081392
O         0.0000870015        0.0003062972        0.0001808100
O        -0.0000121649        0.0000264483       -0.0001238064
O         0.0002406493        0.0000189070        0.0005751986
O         0.0000223226        0.0003055630       -0.0001537092
O         0.0000044227        0.0000252919       -0.0002075029
O         0.0002125134        0.0003155399       -0.0002391027
O         0.0003043054        0.0000935630       -0.0001828487
O         0.0000274531       -0.0000143611        0.0001239120
O         0.0000092257        0.0000880502        0.0005115503
O         0.0003120461       -0.0000051926       -0.0004615937
O         0.0000112215       -0.0000999163       -0.0005166617
O         0.0003138614       -0.0002340523       -0.0002244900
O        -0.0000992254        0.0003058638       -0.0001860127
O        -0.0002591454        0.0000189852       -0.0005638946
O         0.0003075104       -0.0000978953        0.0001859240
O         0.0000191233       -0.0002500069        0.0005629390
O        -0.0002277811        0.0003167797        0.0002237358
O        -0.0001062447        0.0000105378        0.0005158589
O         0.0005562330       -0.0000316424        0.0001973956
O        -0.0000122818        0.0000277493        0.0000950844
O        -0.0000303031       -0.0005567712        0.0003363629
O         0.0000149146       -0.0002894075        0.0004258344
O        -0.0000102669        0.0000251968        0.0002224632
O         0.0005369018       -0.0000139847       -0.0004652946
O         0.0000225844       -0.0005416622       -0.0006100524
O         0.0000084261       -0.0002840033       -0.0001309882
O        -0.0002894876        0.0000112383       -0.0004248732
O        -0.0005568360       -0.0000271412       -0.0003348198
O        -0.0005411880        0.0000296309        0.0006107801
O        -0.0002826388        0.0000028267        0.0001285628
O        -0.0000100786        0.0005373567        0.0004650932
O         0.0000244344       -0.0000099012       -0.0002209019
O        -0.0000272421        0.0005569982       -0.0001979046
O         0.0000254303       -0.0000148716       -0.0000950146
O         0.0005053379        0.0001932914       -0.0002525916
O        -0.0000125232       -0.0000019109       -0.0002074045
O        -0.0000157529       -0.0005409373        0.0006389882
O         0.0000892970       -0.0002857871       -0.0001886349
O        -0.0000023816        0.0002360002        0.0005797676
O         0.0005541510        0.0000563296       -0.0002093903
O         0.0001075830       -0.0005265733        0.0000308618
O        -0.0000101561       -0.0002897351       -0.0004527631
O        -0.0002813363        0.0000258512       -0.0001407013
O        -0.0005373348        0.0002345182        0.0000785875
O         0.0002148678       -0.0002958734        0.0002459989
O         0.0000581782       -0.0005569762       -0.0003458424
O        -0.0005560181        0.0000483165        0.0003453010
O        -0.0002946095        0.0002195052       -0.0002465322
O         0.0000197153       -0.0002811031        0.0001414602
O         0.0002390330       -0.0005371878       -0.0000796780
O        -0.0005272884        0.0001017872       -0.0000300719
O        -0.0002878748       -0.0000078541        0.0004524365
O         0.0000512846        0.0005511740        0.0002094147
O         0.0002397593        0.0000002105       -0.0005803053
O        -0.0002877524        0.0000925320        0.0001884812
O        -0.0005410280       -0.0000203334       -0.0006397881
O         0.0001844506        0.0005082418        0.0002515941
O         0.0000006531       -0.0000128130        0.0002066470
O        -0.0000090766       -0.0000135020       -0.0001198800
O         0.0004858151        0.0000908176        0.0002255043
O         0.0000917275        0.0000017705        0.0005124451
O         0.0000144541        0.0005428938       -0.0004935018
O         0.0005426938        0.0000130547        0.0004940867
O         0.0000034953        0.0000915979       -0.0005123383
O        -0.0000144249       -0.0000084534        0.0001212231
O         0.0000850980        0.0004852282       -0.0002244086
O         0.0004909388       -0.0000972606       -0.0002280159
O        -0.0000056735       -0.0002555824       -0.0005645942
O        -0.0001220532       -0.0005270561       -0.0000351915
O        -0.0002315932       -0.0002946184       -0.0002305438
O         0.0000052176       -0.0001031789        0.0005172422
O         0.0005067903       -0.0002069634        0.0002352814
O        -0.0002558038       -0.0005373214        0.0000642528
O        -0.0000962661       -0.0002879272        0.0001942607
O        -0.0002974514       -0.0002371170        0.0002298215
O        -0.0005270280       -0.0001129845        0.0000338794
O        -0.0005362686       -0.0002506468       -0.0000650564
O        -0.0002868379       -0.0001007643       -0.0001948408
O        -0.0002008472        0.0005057684       -0.0002342820
O        -0.0001047279        0.0000076375       -0.0005183182
O        -0.0000928023        0.0004907630        0.0002301677
O        -0.0002553287       -0.0000079795        0.0005629583
O         0.0005478821       -0.0000271406        0.0003398065
O        -0.0005601768       -0.0000146947        0.0004540746
O        -0.0000296249       -0.0005750983        0.0001878651
O         0.0000198485        0.0005319501        0.0006126758
O        -0.0005735854       -0.0000279055       -0.0001873012
O         0.0005317233        0.0000256149       -0.0006112907
O        -0.0000126744       -0.0005608420       -0.0004551233
O        -0.0000295269        0.0005481184       -0.0003369624
O         0.0005270068        0.0002315165       -0.0000820696
O        -0.0005770814        0.0000551845        0.0001996376
O         0.0000166507       -0.0005570882        0.0004853417
O         0.0001062458        0.0005145516       -0.0000368821
O        -0.0005233580        0.0001915899        0.0002594918
O         0.0005487366        0.0000554467       -0.0003461823
O         0.0000923727       -0.0005038402        0.0002308954
O        -0.0000133721        0.0005318597       -0.0006378664
O         0.0002372547        0.0005259027        0.0000820141
O         0.0000492196       -0.0005784006       -0.0001991809
O         0.0000615809        0.0005485453        0.0003492242
O         0.0001907730       -0.0005227979       -0.0002612816
O        -0.0005050158        0.0000922171       -0.0002328324
O         0.0005315350       -0.0000148287        0.0006384974
O         0.0005147652        0.0001015542        0.0000350594
O        -0.0005554361        0.0000256074       -0.0004840366
O         0.0005149836       -0.0001161465       -0.0000434705
O        -0.0005270235       -0.0002109269       -0.0002439656
O        -0.0000930037       -0.0005007170       -0.0002350030
O        -0.0002532006        0.0005269581       -0.0000664027
O        -0.0004984605       -0.0001021185        0.0002354063
O         0.0005266515       -0.0002469593        0.0000662913
O        -0.0002075256       -0.0005260444        0.0002428903
O        -0.0001206790        0.0005155828        0.0000427405
     192
 i =        3, E =     -5781.5360432422
Ti         0.0000287870        0.0000302421       -0.0000010550
Ti        -0.0000674423       -0.0000687668        0.0000004056
Ti         0.0000211428       -0.0000575743        0.0005708819
Ti        -0.0000607612        0.0000217172       -0.0005730867
Ti         0.0000203617       -0.0000882819        0.0002355365
Ti        -0.0000603880       -0.0000105794        0.0005625927
Ti         0.0000642683       -0.0000689917       -0.0000281526
Ti        -0.0003999639        0.0000083790        0.0003334189
Ti        -0.0000734542       -0.0000995242       -0.0007953179
Ti         0.0000293445       -0.0000201399        0.0000083696
Ti        -0.0004011801       -0.0000925193       -0.0009057335
Ti         0.0000573740        0.0000210703        0.0006019385
Ti        -0.0000903131        0.0000199540       -0.0002331103
Ti        -0.0000121773       -0.0000591874       -0.0005607204
Ti        -0.0000206670        0.0000302638       -0.0000089056
Ti        -0.0000996590       -0.0000747198        0.0007975561
Ti        -0.0000929554       -0.0004022941        0.0009075582
Ti         0.0000218899        0.0000547832       -0.0005993920
Ti         0.0000082548       -0.0004012963       -0.0003317376
Ti        -0.0000695208        0.0000642626        0.0000299445
Ti         0.0000073888        0.0004140767        0.0003275856
Ti        -0.0000741225        0.0000755454        0.0007726096
Ti         0.0004124340       -0.0000911332        0.0009010538
Ti         0.0000676192        0.0000192062        0.0002105335
Ti        -0.0000926559        0.0004126671       -0.0009037331
Ti         0.0000204401        0.0000664088       -0.0002123857
Ti         0.0000767729       -0.0000745466       -0.0007718564
Ti         0.0004161195        0.0000082935       -0.0003310545
Ti        -0.0001013951       -0.0001025662       -0.0000007986
Ti        -0.0000215824       -0.0000222123       -0.0000003202
Ti         0.0000866644       -0.0004016761       -0.0009334070
Ti        -0.0004014252        0.0000881350        0.0009324822
Ti        -0.0000103784       -0.0000919091       -0.0002463216
Ti        -0.0000911181       -0.0000087419        0.0002452746
Ti        -0.0004174953       -0.0004188344       -0.0000016112
Ti         0.0000641868        0.0000640124       -0.0000007695
Ti         0.0000561940       -0.0000112852       -0.0005905204
Ti        -0.0004028091       -0.0001207973        0.0001412921
Ti        -0.0000985287        0.0000692937       -0.0008246942
Ti        -0.0000012257       -0.0004006666        0.0003408467
Ti        -0.0004022802       -0.0000011304       -0.0003417812
Ti         0.0000688716       -0.0000989320        0.0008235204
Ti        -0.0000123846        0.0000574899        0.0005893777
Ti        -0.0001197127       -0.0004048395       -0.0001436189
Ti        -0.0001180250        0.0004148453        0.0001370759
Ti        -0.0000123919        0.0000661726        0.0002206038
Ti         0.0004284630       -0.0004157172       -0.0000064951
Ti         0.0000773312        0.0000705203        0.0008015980
Ti        -0.0000015544        0.0004140528       -0.0003382406
Ti        -0.0001032927        0.0000823996        0.0000250991
Ti         0.0001008333       -0.0004035612        0.0001688011
Ti         0.0004127064        0.0000848166       -0.0009272692
Ti         0.0000701635        0.0000782925       -0.0008005198
Ti        -0.0004161007        0.0004295782        0.0000099215
Ti        -0.0004067309        0.0000994630       -0.0001657407
Ti         0.0000855500        0.0004136877        0.0009289903
Ti         0.0000810764       -0.0001017989       -0.0000226827
Ti         0.0004140847       -0.0000030013        0.0003374602
Ti         0.0004156312       -0.0001181621       -0.0001361448
Ti         0.0000676991       -0.0000142567       -0.0002189394
Ti         0.0004297709        0.0004290927       -0.0000008927
Ti         0.0000796539        0.0000801335       -0.0000002041
Ti         0.0004124690        0.0001001117        0.0001602657
Ti         0.0001005601        0.0004149319       -0.0001611177
O        -0.0000913067       -0.0002102046       -0.0000052562
O         0.0000174905        0.0000321446        0.0004756436
O        -0.0002206939        0.0000172514       -0.0000827465
O         0.0000582763       -0.0000922467        0.0005359777
O         0.0000170084       -0.0002204328        0.0000820435
O        -0.0000918576        0.0000574710       -0.0005365454
O         0.0000343164        0.0000163261       -0.0004755268
O        -0.0002099167       -0.0000906962        0.0000062268
O        -0.0000843165        0.0003329119       -0.0003461157
O         0.0000176278        0.0002467565       -0.0000831449
O        -0.0000216136        0.0000154686        0.0004923291
O         0.0002656283       -0.0000810947       -0.0002906514
O         0.0000340586        0.0003150445        0.0004435972
O        -0.0000905382        0.0002361668        0.0000078121
O         0.0002528710        0.0000423577        0.0004063943
O        -0.0000453791       -0.0000924716       -0.0005528944
O         0.0003362888       -0.0000846641        0.0003462899
O         0.0002464474        0.0000173175        0.0000822482
O         0.0002383536       -0.0000903053       -0.0000075027
O         0.0003143051        0.0000329903       -0.0004435627
O         0.0000437993        0.0002578016       -0.0004079600
O        -0.0000933677       -0.0000471784        0.0005531970