     192
 i =        1, E =     -5777.9860075844
Ti        -0.0630865133        0.0966741007        0.0644013762
Ti         1.8658844263        1.9228400929        4.8979796803
Ti         0.0464887798        2.0292290907        2.5291936260
Ti         1.8630964984       -0.0453194901        7.1740104240
Ti        -0.0321370338        3.8285269095       -0.0529931345
Ti         1.9489377313       13.1909137369        4.8330813786
Ti        11.2885762215        1.9805220640        2.4501920376
Ti         5.6065523076       -0.0896806304        7.2225606729
Ti         1.9043038408        3.8187462653        7.2349749404
Ti         0.0269176374       13.3447976402        2.4747508903
Ti         5.6776484611        1.8329356075        4.8271039854
Ti        11.3023057842        0.1147732800       -0.0436847379
Ti         3.6778804328        0.0957667699        0.0497714818
Ti        13.1228375577        1.7706910355        4.7055211879
Ti        13.2649424997       -0.0453863867        7.1544152008
Ti         3.7515871280        1.8036040696        2.5198469332
Ti         1.9708107646        5.6384025557        4.8514307908
Ti         0.0053733220       11.5785438644        0.0001644510
Ti        -0.0210986346        5.7243622737        2.4875556925
Ti         1.9019703638       11.3199840897        7.3600496700
Ti         0.0685358178        7.4900711622        0.0497685831
Ti         2.0405034375        9.5181629644        4.9040041487
Ti         7.4994405450        1.9553894319        2.3526637408
Ti         9.4671108107       -0.1301242169        7.2268149949
Ti         1.9470213223        7.5774376228        7.1609487758
Ti         0.1326319512        9.5815351161        2.4852807090
Ti         9.3289214785        1.8084829626        4.7665194831
Ti         7.4652096487       -0.0618249905       -0.0785670353
Ti         3.7302833661        3.7826400013       -0.0057884400
Ti        13.2350655630       13.1263652136        4.7433216575
Ti        11.3758809425        5.7268346466        2.3761421911
Ti         5.6763088771       11.3267421934        7.1529004709
Ti        13.1717588270        3.6795850477        7.2417595609
Ti         3.7733595365       13.1631567438        2.4443079684
Ti         5.6777867569        5.7205279724        4.8440928037
Ti        11.2239219483       11.3888228127        0.1060213872
Ti        11.2857853298       13.3361124285        2.3544306850
Ti         5.6556972392        3.7265287129        7.1300429420
Ti         3.8819014054       11.4217605716        0.0416857352
Ti        13.2857238662        5.5844558028        4.8997172537
Ti         5.7961098448       13.2074910216        4.8095537083
Ti        11.2700680014        3.7910857040       -0.0768861575
Ti        13.0939481867       11.3812440242        7.2642300922
Ti         3.7932475406        5.6127071604        2.3925958233
Ti         3.7988720064        7.5562698150        0.0463533844
Ti        13.3003820105        9.4203392716        4.8376093631
Ti         7.5230432529        5.6759861819        2.3899240666
Ti         9.4248144545       11.1448027598        7.1747431349
Ti        13.3035236187        7.5408427918        7.2331199218
Ti         3.8862534989        9.4460921258        2.3378970719
Ti         9.5196216875        5.5595965234        4.7069037714
Ti         7.5317050971       11.3445427211        0.0675472811
Ti        11.4034116116        9.4495871574        2.4128655142
Ti         5.6590713042        7.6054572142        7.1994889547
Ti         5.7772987190        9.4240666252        4.7439069025
Ti        11.3229448948        7.5728378712        0.0074271929
Ti         9.4266223460        3.6454971219        7.1673600346
Ti         7.5399129883       13.3067603049        2.4080205190
Ti         7.4647747662        3.7993968037       -0.0653442777
Ti         9.5100630718       13.2428603109        4.7805116440
Ti         7.5989140863        7.5352837152       -0.0571811281
Ti         9.5274923138        9.3933002032        4.7598559387
Ti         7.6396394822        9.4190108990        2.3237079451
Ti         9.5142368836        7.3588633682        7.1443630739
O         0.0539997998        0.0809083632        2.0893305592
O         1.6726754904        1.9369317588        6.7361188353
O        -0.0710408466        1.9997191221        4.4111226824
O         1.7990136524        0.1468217039        9.2353597277
O         1.8100511139       -0.0182372473        5.2633976462
O        -0.1484151435        2.0062278711        0.4935095635
O         1.8661643448        2.1730019617        2.8350651390
O        -0.0721941780       -0.0496231675        7.6243146733
O        -0.0301867407        3.9101103486        2.0825379709
O         1.9932891209       13.2722663252        6.8211159110
O        11.2884285656        1.8283561101        4.3128720426
O         5.6333737594       -0.0199129899        9.2630712198
O         2.1087597506        3.7574195376        5.1810850096
O         0.0508225870       13.3753144105        0.4409273050
O         5.6321484789        1.8561942668        2.8388712428
O        11.2832065438        0.0661576791        7.5662858630
O         3.7109309211        0.1146441965        7.6933465520
O        13.1894060048        1.8743771114        2.8340123233
O        13.1742542943       -0.1025414355        9.2150121041
O         3.7101864644        1.6539615543        4.3744121576
O         1.9080893828        5.6223527763        6.7400135177
O         0.0563276365       11.4510591637        1.9126531296
O         0.0838279185        5.7152429800        0.4705035766
O         1.9129322083       11.3161185548        5.2386984339
O         0.1231697043        7.7267606211        1.9465068942
O         2.1534072022        9.4631200597        6.7774560648
O         7.4565499426        1.8656162076        4.3600394192
O         9.4166231866        0.0345589643        9.1982379447
O         1.8258175833        7.5681445185        5.2764832652
O         0.1100032537        9.5677943852        0.2707359345
O         9.3704830827        2.0389588042        2.8415514043
O         7.4818828325       -0.1594066660        7.7020805057
O         3.7484176860        0.0586738846        2.0362141528
O        13.2199448408        1.8486924575        6.7808985890
O         0.0035499927        5.6047466260        4.4864774102
O         1.9276895687       11.3556424570        9.2622625041
O        13.1743068252       -0.0292331466        5.1338338682
O         3.7067873336        1.9533948982        0.4351514144
O         1.9468427103        5.7990810148        2.9138774003
O         0.1002484526       11.4244282924        7.5712069629
O        11.3464908514        2.0065420138        0.2877210674
O         5.8148786977       -0.0882998600        5.2771658209
O         5.5689759962        1.8283625551        6.7821997720
O        11.2707876424        0.1395241751        1.8937981931
O         1.9079037027        3.8334522158        9.2019566870
O        -0.0214391263       13.1572751103        4.4540866362
O         0.0225368109        3.7982407425        7.6792198419
O         1.8869024858       13.2369280111        2.8684130859
O         3.9614272224        3.8398541008        2.0680785165
O        13.1085758324       13.2702076932        6.7308862005
O        11.3702573522        5.6618487493        4.3834558086
O         5.6887676428       11.4677898292        9.2249549686
O        13.1784666743        3.8042579034        5.2231394745
O         3.6417659038       13.3089635939        0.5103107041
O         5.7416752764        5.9078093260        2.7418613251
O        11.3031347697       11.3374141075        7.6550526460
O        11.2523997126       13.2688598243        0.4118854770
O         5.5006532831        3.7180001098        5.1863348050
O         3.7893632157       11.3699448951        7.6832071472
O        13.2793313741        5.9224897801        2.8734486146
O         5.5211320108       13.2005790544        6.7793842445
O        11.5375327624        3.8318666650        1.9184374207
O        13.2395982848       11.4085034086        9.2077993914
O         3.8631806101        5.7138040743        4.4035293874
O         5.7625181383        5.6330053123        6.7326482385
O        11.1260793926       11.4619281029        1.9978221723
O        13.2102586647        3.9062584018        9.1356163174
O         3.7962636021       13.2145491020        4.3878787952
O        11.3562690394        5.7366764522        0.4135335648
O         5.7904409580       11.3036542248        5.2387590897
O         3.7430557433        3.7240710431        7.6515075188
O        13.2132291388       13.2168534003        2.7183709261
O        13.0563831934       11.4105607338        5.1559790009
O         3.7137803365        5.6744033953        0.4303502500
O         5.6959737155       13.1699679082        2.8693784448
O        11.2940989320        3.5637727759        7.5591185392
O         3.9605383526       11.4078933515        1.9633766214
O        13.2153430670        5.6409541100        6.8942947461
O        11.2859927024       13.3451884670        4.3208881980
O         5.6650991969        3.8107553921        9.1402207258
O         3.7844635438        7.6390993742        1.9251389423
O        13.3095171869        9.5859762508        6.7508032467
O         7.5712711154        5.5293556392        4.3196369156
O         9.4251983481       11.3223586914        9.2240853982
O        13.2669572287        7.5878070575        5.4227947167
O         3.8089728622        9.5217563811        0.3623024701
O         9.5571667522        5.5816526145        2.7923479403
O         7.5201833823       11.3431494851        7.5744984467
O        11.3430962636        9.4919048069        0.4114924693
O         5.7330269327        7.5688257593        5.1639151231
O         5.5545558033        9.4181603666        6.7580374478
O        11.2280990246        7.6060146101        2.0182634317
O         9.4369556795        3.9458811543        9.1464269259
O         7.5900174107       13.0483509853        4.4512796277
O         7.5019798628        3.6485705699        7.5502088339
O         9.4302293182       13.4622103364        2.8564090284
O         7.4445688859       -0.0399923598        2.0340850413
O         9.2182143971        1.8087297724        6.7239674544
O         0.0786983036        9.3722336420        4.4390318588
O         1.9255658495        7.5818980805        9.2006985264
O         9.3149242079       -0.0320950777        5.1976765509
O         7.6299110242        1.9054723187        0.4421448353
O         1.9648405379        9.6935504012        2.7730460020
O         0.0420660183        7.5693165333        7.6187227171
O         7.5211589221        3.7957848324        1.9463702117
O         9.5044638811       13.2108469951        6.7396459851
O        11.4400091408        9.2311042175        4.3758505625
O         5.6681118761        7.6931746463        9.1227619661
O         9.4792489258        3.6878741392        5.1860430872
O         7.5674678661       13.2199382716        0.4220534792
O         5.7419335450        9.3988526828        2.7158480920
O        11.3014770936        7.6425785412        7.5988739375
O         3.7900160328        7.3680399719        7.6048714684
O        13.3242650594        9.6133127906        2.8097337348
O        13.2661655181        7.6762519335        9.3208021132
O         3.8509050786        9.4237747702        4.2942576154
O         9.6060792872        5.5299399244        6.7522222247
O         7.6419406876       11.3271689399        1.9556288388
O         7.3473682265        5.6966283150        0.3735944193
O         9.5576785187       11.2273113419        5.2005312723
O         7.8526207148        7.5913579860        1.9223410505
O         9.4512514879        9.4195701513        6.8076308548
O         7.5571775209        9.3768540401        4.3239160616
O         9.4718468307        7.4424284965        9.2163918681
O         9.3599546628        7.4818121511        5.2475947158
O         7.5182353437        9.4688905422        0.3656176264
O         9.5714687602        9.5072880955        2.8726252941
O         7.5958403586        7.5411280989        7.5898381598
     192
 i =        2, E =     -5778.0803412496
Ti        -0.0591715600        0.1167159185        0.0317858697
Ti         1.8567399735        1.9279903251        4.8807645354
Ti         0.0382675870        2.0099660862        2.4899650730
Ti         1.8449216527       -0.0646307877        7.1926409689
Ti        -0.0552315997        3.8282881759       -0.0321871213
Ti         1.9506075573       13.2065688944        4.8405450319
Ti        11.3012374473        1.9580498504        2.4317976049
Ti         5.6010765592       -0.0751921766        7.2142653898
Ti         1.9050612585        3.8051883036        7.2471175040
Ti         0.0084015886       13.3331881473        2.4598585867
Ti         5.6832443710        1.8514911292        4.8117194306
Ti        11.2904610977        0.0926334914       -0.0321978784
Ti         3.6607478479        0.0811601084        0.0344786389
Ti        13.1630132410        1.7935419841        4.7370745492
Ti        13.2639817795       -0.0402804130        7.1778372785
Ti         3.7647698313        1.8352368802        2.5049236434
Ti         1.9628891580        5.6567862849        4.8332245154
Ti         0.0027101209       11.5711113636       -0.0098768263
Ti        -0.0140208865        5.7085144770        2.4792503245
Ti         1.8826572627       11.3453527940        7.3290368423
Ti         0.0322218750        7.4827684344        0.0263696497
Ti         2.0242367622        9.5187706553        4.8644890841
Ti         7.5004279759        1.9547968231        2.3342701418
Ti         9.4814376404       -0.1093858411        7.2256396922
Ti         1.9379338921        7.5722355527        7.1763519595
Ti         0.1035760718        9.5519952493        2.4970374826
Ti         9.3516888640        1.8222773359        4.7915922089
Ti         7.4670528945       -0.0343935649       -0.0623270110
Ti         3.7399216556        3.7717520484        0.0044955037
Ti        13.2303060181       13.1189944693        4.7799933581
Ti        11.3594921604        5.7150295432        2.3857115645
Ti         5.6737707457       11.3198163219        7.1757284274
Ti        13.1642568356        3.7049244825        7.2301514502
Ti         3.7819887877       13.1946099404        2.4447257609
Ti         5.6991069051        5.6979669864        4.8329743779
Ti        11.2242369717       11.3866287293        0.0807225944
Ti        11.3052803763       13.3139864328        2.3465782182
Ti         5.6647307947        3.7247093052        7.1427605336
Ti         3.8645539569       11.3967067130        0.0202282238
Ti        13.2743028029        5.5938557788        4.8704922612
Ti         5.7712667805       13.2029597633        4.8063852947
Ti        11.2641391396        3.7986693864       -0.0436304302
Ti        13.1238377015       11.3541567496        7.2606943291
Ti         3.8047371492        5.6337638800        2.3950349049
Ti         3.7888208266        7.5813731337        0.0302702145
Ti        13.2811288674        9.4294334894        4.8429007869
Ti         7.4954774095        5.6832847310        2.4116369834
Ti         9.4120292956       11.1794412817        7.1700487112
Ti        13.2959282882        7.5275293563        7.1968869034
Ti         3.8601314875        9.4359349245        2.3522328335
Ti         9.5195953964        5.5722532437        4.7281041749
Ti         7.5644508285       11.3542002585        0.0400240743
Ti        11.3928966865        9.4542670766        2.4338003260
Ti         5.6647212737        7.5815215837        7.2238230345
Ti         5.7696227587        9.4191449568        4.7596279590
Ti        11.3307826662        7.5855744900       -0.0000719864
Ti         9.4360676672        3.6645294718        7.1746659292
Ti         7.5408724326       13.3226290498        2.3894943424
Ti         7.4746486233        3.7987650836       -0.0574279392
Ti         9.4966301125       13.2369308658        4.7893763287
Ti         7.6101736041        7.5352564442       -0.0622364141
Ti         9.5253003658        9.4213170166        4.7794444978
Ti         7.6134166124        9.4158245041        2.3310101228
Ti         9.5174741631        7.3904024098        7.1541321289
O         0.0553662020        0.0642566356        2.0237917027
O         1.7645461744        1.9174776603        6.7632012143
O        -0.0225497393        1.9750501525        4.3904035088
O         1.7968647294        0.1215343518        9.2073090054
O         1.8176454960       -0.0102346774        5.2705514850
O        -0.1113402598        2.0071814790        0.4551958493
O         1.8658709574        2.0802501271        2.8155525659
O        -0.0531805556       -0.0525077083        7.6434437366
O        -0.0606749192        3.8899442826        2.0688978766
O         1.9841242608       13.2462172901        6.8317356943
O        11.2951531064        1.8437252242        4.3372748035
O         5.6048279247        0.0194004653        9.2449016938
O         2.0552040068        3.7796315352        5.1983721343
O         0.0461671088       13.3755129266        0.4391132017
O         5.6338053731        1.9255634715        2.8244680154
O        11.3085800482        0.0738630988        7.5761166993
O         3.7020665114        0.0780110723        7.6706731311
O        13.1889298269        1.8989615091        2.8430210341
O        13.1854196591       -0.0184757243        9.1855207338
O         3.7225578855        1.6899929415        4.3924349358
O         1.8717879196        5.6365371464        6.7680334216
O         0.0255715530       11.4241280791        1.9070951996
O         0.0356199230        5.7070242635        0.4614649195
O         1.8921974871       11.3344788621        5.2461915638
O         0.1256405760        7.6996023709        1.9317782674
O         2.0518985176        9.4671526328        6.7908854210
O         7.4985508681        1.9137438540        4.3777818435
O         9.4176065800        0.0110011322        9.1687729234
O         1.8982499350        7.5653866970        5.2724953472
O         0.0821107239        9.5425720700        0.2667863069
O         9.3819456420        1.9759228793        2.8236869377
O         7.4775547146       -0.1292449643        7.6759850930
O         3.7351570493        0.0665757102        2.0293069487
O        13.2722781413        1.8660052302        6.7861483119
O         0.0108595593        5.5948220822        4.4606582182
O         1.8905866626       11.3557348973        9.2410937458
O        13.2282949880       -0.0033959116        5.1742884659
O         3.7139206552        1.9343171796        0.4465022226
O         1.9427104291        5.7443435080        2.8722414168
O         0.0516700341       11.4340036448        7.6038465396
O        11.3213761110        1.9833549035        0.3160893190
O         5.7835419374       -0.0579820595        5.2567687189
O         5.6324661375        1.8243208153        6.7755321728
O        11.2999303733        0.1286705226        1.9163310999
O         1.8864765244        3.8176002773        9.2326868811
O        -0.0123477802       13.2091604196        4.4081989602
O         0.0026954564        3.7765522216        7.6805844346
O         1.8800783245       13.2370161716        2.8666404460
O         3.8984182257        3.8507836723        2.0544827649
O        13.1572696643       13.2360800253        6.7815163977
O        11.3676728118        5.6633808459        4.4005752657
O         5.6954594570       11.4509571181        9.2241233727
O        13.1570035200        3.8066024900        5.2243967967
O         3.6532960280       13.2953563090        0.4800987098
O         5.7119946837        5.8699708213        2.7667605271
O        11.3208894982       11.3341644377        7.6180954232
O        11.2764593923       13.2726880526        0.3902910866
O         5.5898345967        3.7211597297        5.1913977362
O         3.7927076339       11.3754929988        7.6663694051
O        13.2882687542        5.8979904398        2.8684029711
O         5.5235555172       13.2039676098        6.8053874969
O        11.4696076260        3.8070533013        1.9599634699
O        13.2578949528       11.4314329553        9.1945077682
O         3.8560055727        5.7208721087        4.3986603918
O         5.7485657784        5.6319512306        6.7309054682
O        11.2243974553       11.4115893559        2.0044113102
O        13.2085722276        3.8870556693        9.1449337418
O         3.7812128236       13.2289139123        4.4127811359
O        11.4020109620        5.7432993432        0.4105986780
O         5.7401306975       11.2891341314        5.2518122185
O         3.7563478651        3.7263604748        7.6621408756
O        13.2311271633       13.2712930431        2.7820045168
O        13.0939911348       11.3488942158        5.1633247605
O         3.7415881347        5.6814299271        0.4290424194
O         5.6940134576       13.2326112890        2.8568438218
O        11.3033770347        3.5835619680        7.5821945356
O         3.9216253024       11.4015456811        1.9821822498
O        13.2240784639        5.6545296493        6.8315085858
O        11.3043350638       13.3013146845        4.3379133936
O         5.6588209862        3.7832884797        9.1573047747
O         3.7550742231        7.6133430259        1.9377547304
O        13.3070192575        9.5448341572        6.7807366667
O         7.5857903896        5.5232598421        4.3284021772
O         9.4334618583       11.3086938260        9.1709691151
O        13.3022367517        7.5762309009        5.3444330760
O         3.7975668300        9.5103348086        0.3849178416
O         9.5064831896        5.5806556886        2.8011446370
O         7.5198918016       11.3208271772        7.5671442174
O        11.3604183384        9.4845717453        0.4726931533
O         5.7447170828        7.5496814051        5.1828460724
O         5.6104943146        9.4037005037        6.7683422044
O        11.3029106075        7.6170127177        1.9979125263
O         9.4176040975        3.9238737736        9.1465735593
O         7.5729563198       13.0912945617        4.4038171160
O         7.5202761847        3.6961209158        7.5777552741
O         9.4262153674       13.3657053657        2.8255162249
O         7.4829470640        0.0004328855        2.0296564338
O         9.2850828486        1.8245142829        6.7569863157
O         0.0517150150        9.4416506428        4.4210534093
O         1.9040062978        7.6633092191        9.2112615357
O         9.3618650297       -0.0223030675        5.2055586260
O         7.5539683810        1.9142148794        0.4138115686
O         1.9347400848        9.6281336652        2.7710221227
O         0.0315200587        7.5829411764        7.6183824899
O         7.4813287098        3.8178781512        1.9447082605
O         9.4844854327       13.2189637468        6.7593096769
O        11.4111919797        9.2530476930        4.3982387780
O         5.6707648648        7.6412527923        9.1525570811
O         9.4553567476        3.7123742542        5.1982003918
O         7.5839165483       13.2525856086        0.4316276617
O         5.7302747636        9.4140940122        2.7568242633
O        11.3370426390        7.6204533687        7.6405064876
O         3.7823585851        7.4033917137        7.5987330562
O        13.2909525259        9.5993125016        2.8156579780
O        13.2668116434        7.6545389030        9.2190206877
O         3.8434255981        9.3944263563        4.3174002744
O         9.5387743367        5.5648632842        6.7625125991
O         7.6621368658       11.3286124996        1.9500238840
O         7.4224393560        5.6911124291        0.4077568588
O         9.5538090418       11.2532911328        5.2102041564
O         7.7876908151        7.5603460475        1.9405880791
O         9.4674398446        9.4122184964        6.8336166827
O         7.5796798704        9.3886495340        4.3407625192
O         9.4703984762        7.5017301121        9.1797845606
O         9.4077060608        7.4927965944        5.2354581647
O         7.5326229431        9.4553581558        0.3705735221
O         9.5273000116        9.5038921533        2.8676075164
O         7.5896678846        7.5148485570        7.5986759243
     192
 i =        3, E =     -5778.1187077480
Ti        -0.0475535414        0.1181733594        0.0170752395
Ti         1.8643084316        1.9199522513        4.8669192963
Ti         0.0349112571        2.0045656278        2.4719146501
Ti         1.8497084555       -0.0534084458        7.2015148091
Ti        -0.0644137235        3.8150585580       -0.0302471432
Ti         1.9479363653       13.2230792969        4.8285216969
Ti        11.3247622248        1.9440901099        2.4327632626
Ti         5.6050669086       -0.0504719994        7.2104928886
Ti         1.9011026790        3.7941315638        7.2463593412
Ti         0.0053083966       13.3340590748        2.4481950634
Ti         5.6883087388        1.8602968636        4.8117341754
Ti        11.2851848395        0.0814919088       -0.0267669060
Ti         3.6711319902        0.0803299142        0.0271465710
Ti        13.1810930814        1.8138218592        4.7690526809
Ti        13.2484424888       -0.0276902499        7.1984732367
Ti         3.7729717499        1.8433890999        2.4833132281
Ti         1.9583381224        5.6664189603        4.8265416664
Ti        -0.0088354573       11.5609242613       -0.0209751768
Ti        -0.0077474142        5.6987405123        2.4721791189
Ti         1.8678766821       11.3535683911        7.2937632506
Ti         0.0149717701        7.4902884472        0.0047966601
Ti         2.0040177300        9.5185705084        4.8479128584
Ti         7.5155616484        1.9471328683        2.3338227266
Ti         9.4692713862       -0.0907834533        7.2165623623
Ti         1.9258055029        7.5681130835        7.1775699123
Ti         0.0833830866        9.5326701745        2.4962592615
Ti         9.3667824536        1.8378613408        4.7873847560
Ti         7.4669939423       -0.0110480143       -0.0556970547
Ti         3.7453293592        3.7781241802        0.0135696657
Ti        13.2328411626       13.1433818020        4.7839775310
Ti        11.3625035867        5.7083662277        2.3930174785
Ti         5.6696962668       11.3188290861        7.1914219845
Ti        13.1767007202        3.7215713106        7.2186473207
Ti         3.7805704148       13.2193169565        2.4227626604
Ti         5.7003068761        5.6799329525        4.8406899777
Ti        11.2421611735       11.3886542764        0.0524909112
Ti        11.3234194074       13.2958797435        2.3693338209
Ti         5.6655549197        3.7316287096        7.1607427055
Ti         3.8433177573       11.3899209155        0.0191328898
Ti        13.2704832374        5.5974443869        4.8481406622
Ti         5.7453593381       13.2029749714        4.7994308771
Ti        11.2698392236        3.7963168281       -0.0202184775
Ti        13.1644880205       11.3310034063        7.2712617251
Ti         3.7957233774        5.6341410693        2.3927557471
Ti         3.7755430006        7.5945283201        0.0154606896
Ti        13.2789397502        9.4393154307        4.8404588259
Ti         7.5011018506        5.6903142419        2.4049461983
Ti         9.4192698537       11.2091494830        7.1647907519
Ti        13.2946235717        7.5225770368        7.1836876484
Ti         3.8395336590        9.4338656135        2.3776721321
Ti         9.5010282810        5.5846647599        4.7455363364
Ti         7.5710004901       11.3477754527        0.0239646559
Ti        11.4004523197        9.4561731586        2.4258941819
Ti         5.6719194046        7.5598221304        7.2361881849
Ti         5.7582617616        9.4136463812        4.7773879143
Ti        11.3519536353        7.5904905880       -0.0132597871
Ti         9.4326899876        3.6880500925        7.1844425898
Ti         7.5482507511       13.3288024322        2.3817461158
Ti         7.4819015836        3.8045344890       -0.0460436505
Ti         9.4883913514       13.2301257642        4.7886201804
Ti         7.6111183977        7.5379414697       -0.0592155273
Ti         9.5161879023        9.4288907377        4.7756509331
Ti         7.6075358296        9.4342668584        2.3525875775
Ti         9.5103935042        7.4318117909        7.1657119260
O         0.0435256824        0.0751398421        1.9942767765
O         1.8091326860        1.9139024831        6.7739982526
O         0.0050747377        1.9423964187        4.3927665530
O         1.8159522420        0.1214916284        9.2036030465
O         1.8097291236       -0.0130599060        5.2671249253
O        -0.0995329649        1.9924564817        0.4462564321
O         1.8694972544        2.0254101866        2.8026616342
O        -0.0396690533       -0.0607613881        7.6384490626
O        -0.0870848446        3.8753776958        2.0459282876
O         1.9563816164       13.2327945402        6.8292386270
O        11.2930033536        1.8531440168        4.3689306389
O         5.5915358121        0.0151895598        9.2278282872
O         2.0180287717        3.7854458769        5.2152349491
O         0.0347409624       13.3605274608        0.4310870165
O         5.6455690393        1.9594271591        2.8196282749
O        11.3052395737        0.0563133218        7.5843051331
O         3.7119798941        0.0325428806        7.6658221795
O        13.2030234647        1.8937701037        2.8548854986
O        13.1928439429        0.0490932196        9.1751482227
O         3.7488625352        1.7285451643        4.4000345824
O         1.8600403736        5.6497353204        6.7943443605
O        -0.0116193695       11.4069687911        1.9118947616