     192
 i =        1, E =     -5777.9860075844
Ti        -0.0041179211        0.0142445051       -0.0060974298
Ti        -0.0078269542       -0.0033779289       -0.0163290272
Ti        -0.0066819093        0.0018410023       -0.0147426176
Ti        -0.0067724541        0.0092557502        0.0132448246
Ti        -0.0050239777       -0.0068430278        0.0142283683
Ti         0.0027476378        0.0034078900        0.0034603034
Ti         0.0042594003        0.0034607291       -0.0262517861
Ti         0.0002061465        0.0072255105        0.0050888437
Ti        -0.0004239836       -0.0134181421       -0.0055924893
Ti        -0.0122951182       -0.0028402574        0.0002043121
Ti        -0.0143142214        0.0031339927        0.0002355105
Ti        -0.0044117545       -0.0074869353       -0.0012463634
Ti        -0.0001508801       -0.0054146877       -0.0056268381
Ti         0.0146013546        0.0054313149        0.0231263403
Ti        -0.0145539879        0.0082321382        0.0087390469
Ti         0.0030504487        0.0215259683       -0.0132535631
Ti        -0.0017647996        0.0064487589       -0.0190217149
Ti        -0.0018629929        0.0014295508       -0.0107264477
Ti         0.0071972743        0.0029358913        0.0053211951
Ti         0.0093595985        0.0067955635       -0.0171776724
Ti        -0.0087613743        0.0070189720       -0.0104989031
Ti        -0.0036224716       -0.0112453531       -0.0310174200
Ti        -0.0020549750       -0.0115942390       -0.0077146405
Ti        -0.0038369557        0.0084515139        0.0000992080
Ti        -0.0014549584       -0.0053522957        0.0103124146
Ti        -0.0000989571       -0.0065574640        0.0136225263
Ti        -0.0000744794        0.0017312745        0.0092231408
Ti         0.0143808084        0.0075230370        0.0284230666
Ti         0.0151251569        0.0006595315        0.0058257260
Ti        -0.0108802387        0.0202909635       -0.0079654922
Ti         0.0060374882       -0.0074355439        0.0019180763
Ti        -0.0013477515       -0.0035310086        0.0119886382
Ti         0.0047079300        0.0026936868       -0.0125675131
Ti         0.0055981208        0.0177348323        0.0006540057
Ti         0.0157025827       -0.0094709215       -0.0090635785
Ti         0.0009302523        0.0031704279       -0.0117148243
Ti         0.0008956073        0.0013214172       -0.0019329173
Ti        -0.0030134898        0.0006277763        0.0005310495
Ti        -0.0058895469       -0.0026850503       -0.0159814233
Ti        -0.0110114502        0.0096479570        0.0014812809
Ti        -0.0094589073       -0.0069398120       -0.0055272839
Ti         0.0039000903        0.0131279526        0.0106852251
Ti         0.0081986287        0.0020820291        0.0004025096
Ti         0.0045957312        0.0073720090        0.0062361778
Ti         0.0015255651        0.0102127874       -0.0182708029
Ti        -0.0000602403        0.0073636330       -0.0018440717
Ti         0.0024106319        0.0061757701       -0.0026421855
Ti        -0.0071306305        0.0277862624        0.0044469190
Ti        -0.0071979494        0.0002910000        0.0200242598
Ti        -0.0117198939        0.0052748094        0.0004706802
Ti        -0.0033757324        0.0015945384        0.0107911222
Ti         0.0091663646       -0.0000628434       -0.0146212745
Ti         0.0099671041        0.0054247654       -0.0064261457
Ti         0.0063303754       -0.0082412544        0.0059792770
Ti        -0.0120481844        0.0046752761        0.0017890295
Ti         0.0024133467        0.0089127799       -0.0069994734
Ti        -0.0045095032       -0.0018591823       -0.0024055778
Ti         0.0101743045       -0.0075744779       -0.0034333018
Ti         0.0099794435       -0.0026493129        0.0041290710
Ti        -0.0069981086       -0.0083242222        0.0100007989
Ti         0.0013784025        0.0030017089       -0.0041923616
Ti         0.0002393994        0.0008415859        0.0069658002
Ti        -0.0015120337        0.0047560039        0.0042002754
Ti        -0.0109159144        0.0068707307        0.0061372104
O         0.0014266807        0.0020155177       -0.0081904206
O         0.0098403251       -0.0022987042        0.0156366545
O         0.0164434600       -0.0037563145        0.0036551560
O         0.0035081462       -0.0033905446       -0.0052372654
O         0.0008912055        0.0004644405       -0.0061097201
O         0.0059540283       -0.0019646163       -0.0045453317
O         0.0038508063       -0.0123721889       -0.0002253138
O         0.0170117291       -0.0008343680        0.0050572599
O        -0.0028597233       -0.0040765558       -0.0058082101
O        -0.0007024205       -0.0176604427        0.0019365283
O        -0.0132089285       -0.0005934644        0.0163719999
O        -0.0191270745        0.0046124158       -0.0035736252
O        -0.0059295515        0.0109519268        0.0066291678
O         0.0015234212       -0.0057092765        0.0020420762
O         0.0013699368        0.0060292057       -0.0024616429
O         0.0081805261        0.0007836539        0.0029377222
O         0.0010087797       -0.0039474757       -0.0049443085
O        -0.0012359318        0.0029286633       -0.0071187441
O         0.0080197226        0.0095940114       -0.0079401772
O         0.0062250420        0.0016483767        0.0165768040
O        -0.0041490423        0.0097296418        0.0174313852
O        -0.0010364949       -0.0085704807        0.0032992558
O        -0.0063641757       -0.0088712369       -0.0009282744
O        -0.0011963674        0.0152210444        0.0040117780
O        -0.0005913873       -0.0056686628        0.0002807029
O        -0.0087366125       -0.0015988914        0.0181469896
O         0.0179425454        0.0038614422        0.0044356886
O         0.0025895872       -0.0021164216       -0.0056761895
O         0.0086023827       -0.0005531884       -0.0055929824
O        -0.0030870206       -0.0045888544       -0.0019547458
O         0.0037699586       -0.0063893802       -0.0090237131
O        -0.0028603663        0.0028901054       -0.0222504606
O        -0.0003989821       -0.0122431463       -0.0012934634
O         0.0051908370        0.0034952686       -0.0043934310
O         0.0114520079       -0.0007411217       -0.0090096084
O        -0.0134362455        0.0006537158        0.0032635538
O         0.0053183677        0.0102069997        0.0059593472
O         0.0005481564       -0.0049864609        0.0068498437
O        -0.0077049064       -0.0061804667       -0.0077229505
O        -0.0244137932        0.0028425458        0.0112476709
O        -0.0030377312       -0.0151040617        0.0077265503
O        -0.0038788576        0.0147537640       -0.0042889111
O         0.0061295883       -0.0025001533        0.0003228177
O         0.0034986882       -0.0010595970        0.0050798680
O        -0.0138156758       -0.0008625048        0.0056988609
O         0.0078204274        0.0052897356       -0.0113882592
O        -0.0076545042       -0.0009006272       -0.0065414165
O         0.0034982188       -0.0011320058        0.0013500220
O        -0.0072742154       -0.0080874760       -0.0068989980
O         0.0049075715       -0.0180990538        0.0039264967
O         0.0049419960       -0.0007492803        0.0029535263
O         0.0016636014       -0.0008897537       -0.0044502197
O        -0.0034154220       -0.0133149632        0.0008141393
O         0.0011240140        0.0009946231       -0.0096216528
O        -0.0156536182       -0.0045492398        0.0041253854
O         0.0017311360       -0.0002858981       -0.0006339128
O         0.0029473356        0.0123028247       -0.0054341955
O         0.0090414411       -0.0031382149        0.0025641951
O         0.0119025614        0.0001071222        0.0000202554
O         0.0035079143       -0.0044778707        0.0015120207
O        -0.0019874628       -0.0001310049        0.0063590512
O        -0.0087301227       -0.0067318556        0.0062042034
O         0.0073846763        0.0009671360       -0.0011384551
O        -0.0094348863       -0.0000385833       -0.0011836632
O        -0.0029615673        0.0058224130        0.0037922554
O         0.0120423883       -0.0198100999        0.0076573186
O         0.0009059293       -0.0007820619        0.0048212784
O        -0.0061401813        0.0012151734        0.0099724297
O         0.0050670580       -0.0041247025       -0.0013803002
O        -0.0082516224       -0.0048969105       -0.0028934390
O         0.0083220905       -0.0000542469       -0.0010798171
O         0.0054783064        0.0063299377        0.0135374498
O         0.0018631920       -0.0329145771        0.0038166981
O         0.0030004121       -0.0000934288        0.0019322682
O        -0.0028503585        0.0073588581       -0.0017970702
O         0.0062749795        0.0026317188        0.0029194084
O        -0.0025734527       -0.0132768456        0.0099293479
O         0.0006478982        0.0042493965       -0.0062718951
O         0.0214444098       -0.0042176468        0.0050390967
O        -0.0125484758       -0.0020788755        0.0027833682
O        -0.0022680994       -0.0111906440        0.0082984471
O        -0.0006913141       -0.0080174754        0.0094761952
O         0.0029604481       -0.0004687151        0.0032544797
O        -0.0066281952       -0.0015487038       -0.0098287306
O         0.0019422256       -0.0045928226       -0.0329726793
O         0.0004837415       -0.0034737444        0.0038948527
O        -0.0192502744       -0.0007264279       -0.0009021324
O         0.0070756801       -0.0019450433        0.0033080588
O         0.0039655923       -0.0029130828        0.0122062014
O        -0.0011784906       -0.0013143550        0.0057975153
O         0.0041385003        0.0009749699       -0.0030358358
O         0.0083594812        0.0020599027       -0.0072377705
O        -0.0119163970       -0.0026325625       -0.0031504617
O         0.0031494782        0.0047196459       -0.0088291450
O         0.0073135787        0.0041323010        0.0065281598
O        -0.0098990945       -0.0092665019       -0.0094571690
O         0.0038111562        0.0190588128       -0.0044382489
O         0.0080832530        0.0033086656        0.0076931033
O        -0.0009681596        0.0091299304       -0.0114603838
O        -0.0001847179        0.0090597033        0.0000961269
O         0.0054100280        0.0002109054       -0.0007564465
O        -0.0086769899       -0.0036429911       -0.0068925618
O        -0.0032189371       -0.0071391152        0.0031425917
O         0.0008472674        0.0010433807        0.0036882564
O        -0.0031426730        0.0096800924       -0.0019452017
O        -0.0029155321       -0.0062453360        0.0046327552
O        -0.0070642810        0.0031563527        0.0044457760
O        -0.0035425339       -0.0061309691        0.0077115730
O        -0.0023144581        0.0055661947        0.0013681802
O         0.0013756876        0.0128427610        0.0031692587
O         0.0040034028        0.0036419523        0.0055847782
O         0.0235016462       -0.0025994648        0.0112467354
O        -0.0022308884        0.0051342747       -0.0016566601
O        -0.0120772582       -0.0018085315        0.0004098948
O         0.0065156775       -0.0045011045       -0.0123105802
O        -0.0027762481       -0.0018724039        0.0081189048
O        -0.0070070304        0.0093055320        0.0001803220
O         0.0023072746        0.0003546891        0.0056340777
O         0.0076035906       -0.0018615332        0.0024330373
O        -0.0026798744        0.0071299810        0.0015666396
O        -0.0056284785       -0.0108516767        0.0034143829
O         0.0011602272       -0.0242752429       -0.0020507783
O         0.0231833136        0.0022675902        0.0013967619
O        -0.0079570446        0.0054390994       -0.0075995239
O         0.0041135644       -0.0035419576       -0.0061415764
O         0.0022862212       -0.0110175686        0.0022506399
O        -0.0215279084        0.0012737553       -0.0060590659
O        -0.0020385477       -0.0047000570        0.0042347475
     192
 i =        2, E =     -5778.0803412496
Ti        -0.0022630013        0.0043212668        0.0026160365
Ti         0.0013372250       -0.0041544248       -0.0048740292
Ti        -0.0035224934       -0.0020634954       -0.0114426911
Ti         0.0012293017        0.0172360445        0.0045815315
Ti         0.0025447910       -0.0042273310        0.0025216093
Ti        -0.0040236926        0.0062286803       -0.0049247099
Ti        -0.0004504704        0.0042746864       -0.0061830046
Ti         0.0000923053        0.0075971693        0.0063522906
Ti        -0.0054160078       -0.0087351798       -0.0027923103
Ti        -0.0009671126       -0.0018103062       -0.0032677151
Ti        -0.0079704847        0.0000347096        0.0025158602
Ti         0.0023894754        0.0011298364       -0.0041244814
Ti         0.0048047617       -0.0041123228       -0.0039199075
Ti         0.0032151727        0.0071112484        0.0152845608
Ti        -0.0104054564        0.0083081112        0.0026562658
Ti        -0.0027877513        0.0143921351       -0.0101484285
Ti         0.0001771775        0.0035471727       -0.0104373482
Ti        -0.0020822220        0.0053605550       -0.0053883792
Ti         0.0092205841        0.0051897539        0.0034543875
Ti         0.0010758652       -0.0031755707       -0.0117039558
Ti        -0.0026696746        0.0080111077       -0.0110143539
Ti        -0.0050993234       -0.0097154825       -0.0107570068
Ti         0.0041532764       -0.0014875787        0.0041303163
Ti        -0.0080014013        0.0088221327       -0.0010417314
Ti        -0.0059659654       -0.0022586275        0.0068990512
Ti        -0.0074437372       -0.0021067855        0.0035346702
Ti         0.0015932727        0.0059704256       -0.0025740925
Ti         0.0003238518        0.0095210027        0.0068998934
Ti         0.0061815467        0.0055381849        0.0062909386
Ti        -0.0011892547        0.0170543353       -0.0047194072
Ti         0.0016743848       -0.0002888564        0.0028469688
Ti        -0.0063550835       -0.0020687837        0.0056260359
Ti         0.0123140413       -0.0004230557       -0.0090405318
Ti        -0.0052434584        0.0111487128       -0.0053418680
Ti         0.0072459766       -0.0040236871       -0.0036176564
Ti         0.0153790730       -0.0066114843       -0.0100705094
Ti         0.0016677623        0.0001565684        0.0072955360
Ti        -0.0020833327        0.0006004494        0.0033311323
Ti        -0.0073377591        0.0058951931       -0.0065550367
Ti        -0.0033724919        0.0095879253       -0.0023517392
Ti        -0.0099173984        0.0006320593        0.0027092008
Ti         0.0049780260        0.0073234405        0.0054455416
Ti         0.0108288894       -0.0008641893        0.0039380939
Ti        -0.0035580826        0.0043835937        0.0025735660
Ti        -0.0021762756       -0.0041737619       -0.0112637024
Ti         0.0001843922        0.0001927234       -0.0029637025
Ti         0.0118922107        0.0027396160       -0.0076775301
Ti         0.0015168162        0.0131176199       -0.0006826845
Ti        -0.0020863632        0.0063942729        0.0164660883
Ti        -0.0078416122        0.0043065172        0.0029438739
Ti        -0.0080684892        0.0044331609        0.0063554525
Ti        -0.0030747751       -0.0053945433       -0.0010614024
Ti         0.0080360975        0.0024573266       -0.0051298193
Ti         0.0056792569       -0.0086528935       -0.0020613188
Ti        -0.0036196965       -0.0032279224        0.0038656880
Ti         0.0066842231        0.0079728855       -0.0047135374
Ti        -0.0076753816        0.0010356751       -0.0025386429
Ti         0.0088377472       -0.0106860226        0.0001601604
Ti         0.0038146948        0.0056483440        0.0044204018
Ti        -0.0038568089       -0.0037941363        0.0046239100
Ti        -0.0024005939       -0.0021453314        0.0012927064
Ti        -0.0039662389       -0.0098857513        0.0003659441
Ti         0.0047331618        0.0028471753        0.0055780790
Ti        -0.0090866340        0.0069534509        0.0011628216
O        -0.0014688284        0.0116052650       -0.0009938158
O         0.0014861428        0.0010042527        0.0056823300
O         0.0025560419       -0.0038179551        0.0066334854
O         0.0076525487        0.0015691788        0.0010301317
O        -0.0015426079       -0.0036317475       -0.0050974060
O         0.0003624593       -0.0067029972        0.0040718081
O         0.0024373548       -0.0031600256       -0.0004708073
O         0.0074516056       -0.0014709058       -0.0014186648
O        -0.0017356640       -0.0049598810       -0.0038770930
O        -0.0028125887       -0.0128202382       -0.0007219726
O        -0.0063927705       -0.0005805095        0.0100821852
O        -0.0044013566       -0.0028510792       -0.0024813456
O        -0.0022143049        0.0011300920        0.0056761172
O        -0.0010082660       -0.0085103851       -0.0025247689
O         0.0059710458        0.0000149561       -0.0004812069
O         0.0012802437       -0.0030018081        0.0024577266
O         0.0035837328       -0.0047687333        0.0004879749
O         0.0047056975       -0.0020595904       -0.0048489180
O        -0.0011721126        0.0053562556       -0.0002921166
O         0.0073870074        0.0024549307        0.0084800575
O         0.0004647887        0.0055332721        0.0082086033
O        -0.0024069407       -0.0057441186        0.0062808733
O        -0.0015804944       -0.0047572861       -0.0000370269
O         0.0003354108        0.0075751772        0.0017147095
O        -0.0043981735       -0.0021855604        0.0061507182
O        -0.0036318492        0.0024143598        0.0071369849
O         0.0067434975       -0.0029268439       -0.0000863271
O         0.0021712397       -0.0003984415       -0.0000542651
O         0.0005100651        0.0041535350       -0.0081439026
O        -0.0070365280       -0.0007864438       -0.0006417139
O         0.0028843529       -0.0025405078       -0.0077102564
O         0.0011876327        0.0004295766       -0.0066579286
O         0.0014127908       -0.0154430271       -0.0013701498
O        -0.0001513925        0.0034967086       -0.0029053675
O         0.0091895632        0.0002559831       -0.0044672835
O         0.0005603515       -0.0007598353        0.0011085042
O         0.0015319378       -0.0028146010        0.0031691644
O        -0.0005839996        0.0013740631        0.0051543508
O        -0.0091484182       -0.0010865831       -0.0003045290
O        -0.0077665416        0.0000739587        0.0028193593
O        -0.0041030855       -0.0086180034        0.0080430984
O        -0.0032732950       -0.0027619771       -0.0035901516
O         0.0011668116        0.0056446263        0.0006025666
O        -0.0007747674       -0.0146707873        0.0020471805
O        -0.0044420274        0.0025574131       -0.0030026789
O        -0.0010796361       -0.0013454452        0.0013546390
O        -0.0025332150       -0.0007691127       -0.0064719168
O         0.0108535398       -0.0012108440        0.0015951908
O        -0.0040168544       -0.0154628799       -0.0047986728
O         0.0041777042       -0.0046567844       -0.0080237910
O         0.0028238021       -0.0007436075       -0.0049731046
O         0.0028097859       -0.0034627727       -0.0021729790
O         0.0017894800       -0.0161423076       -0.0006251117
O         0.0022756900        0.0000376242       -0.0047174317
O        -0.0104689601       -0.0034463741        0.0039892830
O        -0.0050294436       -0.0002587931        0.0060529189
O         0.0023545828        0.0041181607        0.0043568110
O        -0.0016104346       -0.0001539318        0.0029593582
O         0.0053588236       -0.0048972614        0.0063866231
O        -0.0068450359       -0.0029213517       -0.0003177795
O         0.0028448406       -0.0028939708       -0.0031007179
O        -0.0048154988        0.0072916045       -0.0048990482
O        -0.0112320576       -0.0057554909        0.0040172541
O        -0.0078439193       -0.0039914331        0.0017382988
O        -0.0042056696        0.0033982385        0.0075842673
O         0.0043614027        0.0033841726       -0.0007456185
O        -0.0088106071        0.0022472543        0.0053275444
O         0.0026647172       -0.0000270082        0.0000313277
O        -0.0005165070       -0.0098243176        0.0030069866
O        -0.0037645435        0.0059522068       -0.0046739665
O         0.0048108485        0.0010166703       -0.0027119569
O        -0.0081553370       -0.0001083529        0.0041570889
O         0.0046142587       -0.0049366327        0.0020610365
O         0.0039874793        0.0034756930       -0.0029157811
O        -0.0062648195        0.0031171325        0.0000797951
O         0.0009652071        0.0035789164        0.0053366237
O        -0.0033679478       -0.0088243431        0.0065747893
O        -0.0002726483       -0.0026040749        0.0024932537
O         0.0092803637       -0.0017628422        0.0010747428
O        -0.0077590625       -0.0015927264       -0.0012682453
O         0.0027455765       -0.0010368207        0.0038207578
O        -0.0015219445       -0.0109790843        0.0034860732
O        -0.0044328891        0.0024941358        0.0066697329
O        -0.0040322828        0.0005170336        0.0003545422
O         0.0004003134       -0.0000485566       -0.0199805385
O         0.0020689534       -0.0010092620        0.0032153885
O         0.0040446555        0.0029748040       -0.0034600048
O         0.0106935587        0.0000114236        0.0046289593
O        -0.0006035071        0.0050947062       -0.0061276405
O         0.0003828528        0.0011722844        0.0052849542
O        -0.0000418611        0.0043858337        0.0007075250
O         0.0003115400       -0.0113809554        0.0025529884
O         0.0016775885       -0.0041535908        0.0023160085
O         0.0070740412        0.0042510057       -0.0001101710
O         0.0028382640        0.0020004012        0.0020115747
O         0.0028920912       -0.0010433313       -0.0060348739
O        -0.0005059648        0.0114987463       -0.0059001294
O         0.0036926590       -0.0004324838        0.0018458060
O         0.0079120854        0.0016782410       -0.0080417963
O         0.0010536295       -0.0001154203       -0.0025669279
O         0.0007985302       -0.0059920052       -0.0026424696
O        -0.0007681339       -0.0063555420       -0.0043038690
O         0.0094078110       -0.0033182912        0.0066427868
O         0.0018526059       -0.0030551405        0.0000020278
O        -0.0003689847       -0.0033206423       -0.0005221449
O        -0.0029664199       -0.0077541279       -0.0019480786
O        -0.0027703045        0.0060727489        0.0047984332
O        -0.0036494961        0.0000029663        0.0026502188
O         0.0037859124       -0.0007863951        0.0031789519
O        -0.0001055142       -0.0009717412       -0.0014701941
O         0.0003077306        0.0007726258       -0.0018327958
O         0.0134437752       -0.0053503334       -0.0036305070
O        -0.0001864010        0.0022094520        0.0047498959
O        -0.0035860438       -0.0023648366        0.0010370292
O         0.0027354347        0.0007717774        0.0014206973
O        -0.0062706551        0.0043995288        0.0068297410
O        -0.0007327561        0.0062728014        0.0014205962
O        -0.0037681273        0.0035495418       -0.0019507706
O         0.0036041331        0.0002932325       -0.0081194952
O        -0.0039667093        0.0101807844        0.0008638046
O        -0.0039846999        0.0030898064        0.0009739835
O        -0.0005950396       -0.0095488412       -0.0070626348
O         0.0110608807        0.0038475639        0.0018038556
O        -0.0008574948        0.0021818429        0.0010884272
O         0.0029503923        0.0003629950       -0.0029261785
O        -0.0001346454       -0.0012399660        0.0014354844
O        -0.0081385432       -0.0001619319       -0.0032517735
O         0.0000560277       -0.0001958667        0.0032276625
     192
 i =        3, E =     -5778.1187077480
Ti        -0.0022190648        0.0014370315        0.0023980804
Ti         0.0035261776       -0.0017357538       -0.0020570466
Ti        -0.0032815611       -0.0041524411       -0.0065424070
Ti         0.0006519745        0.0119453538        0.0007426233
Ti         0.0036363980        0.0013747856        0.0002513075
Ti        -0.0054335325        0.0042011953       -0.0035796894
Ti        -0.0039068889        0.0004542547       -0.0026454073
Ti         0.0003815821        0.0007828033        0.0036041824
Ti        -0.0042224847       -0.0029313515       -0.0016297313
Ti         0.0017346455       -0.0038721803       -0.0024657272
Ti        -0.0064318519       -0.0020346220        0.0000409685
Ti         0.0017139327        0.0007803937       -0.0004544641
Ti         0.0060392684       -0.0056170806       -0.0036833663
Ti         0.0008630513        0.0067216359        0.0085056999
Ti        -0.0046048663        0.0012253283       -0.0019261356
Ti        -0.0016293757        0.0119274180       -0.0047613450
Ti        -0.0003625320        0.0012983135       -0.0041707733
Ti         0.0007716432        0.0050854118        0.0013553065
Ti         0.0083908427        0.0072915634       -0.0013168026
Ti         0.0029807534       -0.0050546236       -0.0057631397
Ti         0.0015793139        0.0002917975       -0.0062287865
Ti        -0.0043723423       -0.0077292471       -0.0031461776
Ti         0.0045457950        0.0017131335        0.0053187948
Ti        -0.0084747237        0.0067746859       -0.0025169324
Ti        -0.0041967036       -0.0012797172        0.0051245684
Ti        -0.0081088748        0.0000244522       -0.0014628033
Ti         0.0048246001        0.0028629329       -0.0013970751
Ti        -0.0009235746        0.0046910728        0.0010007260
Ti         0.0021228311        0.0068587517        0.0031708765
Ti         0.0027318363        0.0088438891        0.0050417397
Ti        -0.0011385004        0.0025141158        0.0026192098
Ti        -0.0050360298       -0.0002653742        0.0026529647
Ti         0.0082135493        0.0008938068       -0.0043188941
Ti        -0.0044225299        0.0038021570       -0.0026395753
Ti         0.0034479963       -0.0018840311       -0.0067430928
Ti         0.0147286505       -0.0061601298       -0.0062824310
Ti        -0.0001301104        0.0007153979        0.0024435392
Ti        -0.0034792063       -0.0000988659        0.0051349128
Ti        -0.0055818120        0.0041419312       -0.0040186139
Ti        -0.0024255445        0.0103072682       -0.0020584433
Ti        -0.0078717696        0.0023479392        0.0055921355
Ti         0.0031935838        0.0062637126        0.0006849681
Ti         0.0059127181        0.0021084496       -0.0050257274
Ti        -0.0012043229        0.0052135800        0.0015277874
Ti         0.0005326907       -0.0043780816       -0.0060608831
Ti        -0.0044158182       -0.0017430940       -0.0018379394
Ti         0.0083364502        0.0024853779       -0.0044053385
Ti         0.0027799721        0.0082466193       -0.0009264509
Ti        -0.0014953684        0.0075906332        0.0065141983
Ti        -0.0025944989        0.0031425250       -0.0003062387
Ti        -0.0039602883        0.0066022829        0.0040538772
Ti        -0.0054835953       -0.0047467261        0.0017800824
Ti         0.0025758320        0.0009888344       -0.0025776529
Ti         0.0021014538       -0.0033643063       -0.0014475157
Ti        -0.0004810251       -0.0028419850        0.0038856795
Ti         0.0028911481        0.0045047820       -0.0010610580
Ti        -0.0024236154        0.0011604175       -0.0010613813
Ti         0.0058044960       -0.0113444349        0.0000372037
Ti         0.0026325599        0.0047374020        0.0037815804
Ti        -0.0046016317       -0.0014049587        0.0034331957
Ti        -0.0036241108        0.0014262730        0.0041337207
Ti        -0.0022193927       -0.0097850297        0.0016565125
Ti         0.0038274361        0.0009724413        0.0017902120
Ti        -0.0047350621        0.0050970294       -0.0007919872
O        -0.0009623173        0.0032472934        0.0040378375
O         0.0024109215       -0.0027808588        0.0041784204
O        -0.0042826622        0.0010888616        0.0039521065
O         0.0019363949        0.0020736800        0.0015214909
O         0.0021768298       -0.0000312814       -0.0029699085
O         0.0020615680       -0.0035427866        0.0030339946
O         0.0034045405       -0.0019953673        0.0034836379
O         0.0049860709        0.0005627973       -0.0006196148
O         0.0032311911       -0.0057831373       -0.0013988529
O        -0.0022110005       -0.0039027282       -0.0012509956
O         0.0014951536        0.0004741975        0.0025921602
O         0.0024554528       -0.0009955704       -0.0007152997
O        -0.0021687138       -0.0015060072        0.0020538094
O        -0.0025932420       -0.0023103502       -0.0033407414
O         0.0033451918       -0.0059774674        0.0006518480
O         0.0037577738       -0.0011033077        0.0020198206
O         0.0003265077        0.0006502615       -0.0008321680
O         0.0036365609       -0.0010323299       -0.0029567004
O        -0.0031594932        0.0018287381        0.0009351335
O         0.0040224990        0.0043547805        0.0032680178
O         0.0016957544        0.0013331574        0.0034930354
O         0.0036881736       -0.0022902966        0.0058154808