     192
 i =        1, E =     -5776.6002861782
Ti         0.0006552933        0.0006532576        0.0000009050
Ti        -0.0008267604       -0.0008227110        0.0000019718
Ti         0.0006538974       -0.0008487885       -0.0006007065
Ti        -0.0008508889        0.0006567608        0.0006035851
Ti         0.0006603960       -0.0013049916        0.0002847355
Ti        -0.0008523995       -0.0007059220       -0.0006015293
Ti         0.0008097582       -0.0008278273        0.0000017646
Ti        -0.0002983042        0.0006646000        0.0004087673
Ti        -0.0007968251       -0.0012936212        0.0003072473
Ti         0.0006536306       -0.0007011867       -0.0000000230
Ti        -0.0003058428       -0.0007777630        0.0001937829
Ti         0.0008313766        0.0006539501       -0.0005986796
Ti        -0.0013089114        0.0006610874       -0.0002809701
Ti        -0.0007035392       -0.0008502835        0.0006036039
Ti        -0.0007012133        0.0006530293       -0.0000046517
Ti        -0.0012949204       -0.0008022429       -0.0003102624
Ti        -0.0007810999       -0.0003044795       -0.0001883373
Ti         0.0006562492        0.0008329283        0.0005974488
Ti         0.0006636268       -0.0002988183       -0.0004067901
Ti        -0.0008337068        0.0008071157        0.0000017240
Ti         0.0006644776        0.0003469036        0.0004081884
Ti        -0.0008043521        0.0013086036       -0.0003103819
Ti         0.0003515519       -0.0007839924       -0.0001933630
Ti         0.0013192269        0.0006573234        0.0002821347
Ti        -0.0007820364        0.0003486665        0.0001905302
Ti         0.0006577835        0.0013193818       -0.0002790200
Ti         0.0013116106       -0.0007974183        0.0003123809
Ti         0.0003511092        0.0006630501       -0.0004076345
Ti        -0.0012776081       -0.0012751321       -0.0000018848
Ti        -0.0006986659       -0.0007009173        0.0000038885
Ti         0.0007605876       -0.0003001778        0.0001898133
Ti        -0.0003020728        0.0007603381       -0.0001895502
Ti        -0.0007036665       -0.0013109815       -0.0002877634
Ti        -0.0013084644       -0.0007050680        0.0002838969
Ti        -0.0003042741       -0.0003026789       -0.0000007450
Ti         0.0008105229        0.0008100975        0.0000005497
Ti         0.0008306084       -0.0007026984        0.0006004181
Ti        -0.0003064752       -0.0012661003        0.0001068793
Ti        -0.0012979561        0.0007789619        0.0003121378
Ti        -0.0007062605       -0.0002971627        0.0004080417
Ti        -0.0002997045       -0.0007086131       -0.0004097515
Ti         0.0007798560       -0.0012948174       -0.0003061189
Ti        -0.0007001229        0.0008335151       -0.0006039427
Ti        -0.0012642479       -0.0003052132       -0.0001091996
Ti        -0.0012668655        0.0003508347        0.0001076191
Ti        -0.0007056702        0.0013203128        0.0002816571
Ti         0.0003529105       -0.0002991551        0.0000022470
Ti         0.0013097353        0.0007798540       -0.0003150244
Ti        -0.0007074741        0.0003493620       -0.0004131361
Ti        -0.0012744174        0.0012927287        0.0000007706
Ti         0.0012759695       -0.0003022943        0.0001150200
Ti         0.0003510974        0.0007615465        0.0001894435
Ti         0.0007779865        0.0013055224        0.0003135226
Ti        -0.0003026063        0.0003516987       -0.0000031299
Ti        -0.0002976469        0.0012723168       -0.0001135802
Ti         0.0007607887        0.0003529580       -0.0001863220
Ti         0.0012869595       -0.0012722998       -0.0000056783
Ti         0.0003505396       -0.0007060805        0.0004108054
Ti         0.0003532864       -0.0012630849       -0.0001110474
Ti         0.0013212117       -0.0007092459       -0.0002814570
Ti         0.0003533863        0.0003518281        0.0000014782
Ti         0.0012872424        0.0012873937       -0.0000029553
Ti         0.0003555860        0.0012722694        0.0001181768
Ti         0.0012753689        0.0003511767       -0.0001169265
O        -0.0001426083        0.0000629595       -0.0006229333
O         0.0005594087        0.0003276758       -0.0004313706
O         0.0000819138        0.0005992233       -0.0002875277
O         0.0003488297       -0.0001356665       -0.0007382721
O         0.0006051863        0.0000790708        0.0002861041
O        -0.0001373532        0.0003488809        0.0007393002
O         0.0003301180        0.0005623247        0.0004305595
O         0.0000568205       -0.0001472631        0.0006244617
O        -0.0001370491       -0.0006165181       -0.0006519079
O         0.0006071227       -0.0000879350       -0.0002838532
O        -0.0003472164        0.0005636713       -0.0004243431
O        -0.0001284016       -0.0001307391       -0.0008100451
O         0.0004913335       -0.0006158926        0.0003545818
O        -0.0001463339       -0.0000707459        0.0006216304
O        -0.0001291935        0.0004790850        0.0005204666
O        -0.0003703252       -0.0001385063        0.0007352382
O        -0.0006157757       -0.0001389874        0.0006486995
O        -0.0000936262        0.0006033193        0.0002829962
O        -0.0000678685       -0.0001429723       -0.0006252891
O        -0.0006147495        0.0004902884       -0.0003583913
O         0.0004704722       -0.0001269531       -0.0005188487
O        -0.0001358608       -0.0003664269       -0.0007327460
O        -0.0001376335       -0.0001308572        0.0008092568
O         0.0005697684       -0.0003515273        0.0004242273
O        -0.0001337869        0.0001472161       -0.0008078023
O         0.0004989163        0.0006077780       -0.0003508094
O         0.0001446919        0.0004726161       -0.0005159898
O         0.0006093168       -0.0001334846       -0.0006475368
O         0.0004766653        0.0001461481        0.0005154590
O        -0.0001366317        0.0006059573        0.0006460969
O         0.0006076183        0.0004979097        0.0003503384
O         0.0001432142       -0.0001360001        0.0008064736
O        -0.0005461392        0.0001070246       -0.0002143177
O         0.0001622196        0.0003503718       -0.0007402540
O         0.0001236611       -0.0006459205       -0.0002038052
O         0.0003292010       -0.0005738701       -0.0004374484
O         0.0001780305        0.0000593809        0.0006276935
O        -0.0005419831        0.0003204037        0.0003633502
O         0.0003285193       -0.0006416056        0.0003348001
O         0.0000848255       -0.0006230800        0.0002932731
O        -0.0005769425        0.0003276931        0.0004350954
O        -0.0006462673        0.0001217129        0.0002038186
O        -0.0006403650        0.0003271090       -0.0003338786
O        -0.0006253358        0.0000830272       -0.0002946879
O         0.0003209797       -0.0005419956       -0.0003632031
O         0.0000597420        0.0001776161       -0.0006323587
O         0.0001080032       -0.0005460004        0.0002162123
O         0.0003502740        0.0001589173        0.0007441864
O        -0.0005546753       -0.0006036696       -0.0002731203
O         0.0001736235       -0.0000686531       -0.0006227572
O        -0.0003439481       -0.0006413975       -0.0003294066
O        -0.0001294107       -0.0004854189       -0.0005215978
O         0.0001570795       -0.0006143965        0.0006548808
O        -0.0005418864       -0.0001221541        0.0002127084
O        -0.0001263640       -0.0006514565        0.0003131373
O        -0.0003493194       -0.0005851377        0.0004286489
O        -0.0006202889       -0.0000919696        0.0002906174
O        -0.0006487345       -0.0005963128        0.0001899852
O        -0.0006159021       -0.0005084290        0.0003588662
O        -0.0001323005       -0.0006457332        0.0002015846
O        -0.0006441611       -0.0001315871       -0.0002029267
O        -0.0005096522       -0.0006144333       -0.0003598354
O        -0.0000917763       -0.0006223765       -0.0002892889
O        -0.0005948772       -0.0006478301       -0.0001950400
O        -0.0006505712       -0.0001269104       -0.0003124363
O        -0.0005782960       -0.0003495149       -0.0004277744
O        -0.0001194161       -0.0005459318       -0.0002139655
O        -0.0006175799        0.0001645760       -0.0006560759
O        -0.0004885128       -0.0001303640        0.0005196562
O        -0.0006420166       -0.0003488719        0.0003309271
O        -0.0006029534       -0.0005541242        0.0002754943
O        -0.0000713802        0.0001723808        0.0006276980
O         0.0001650797       -0.0003721531        0.0007387571
O        -0.0005503004       -0.0001270496        0.0004332209
O        -0.0001281301        0.0001506053        0.0008108933
O        -0.0003407253       -0.0005430785        0.0003593139
O        -0.0005407920       -0.0003364599       -0.0003572603
O         0.0001522893       -0.0001287845       -0.0008110173
O        -0.0003702338        0.0001664436       -0.0007411276
O        -0.0001238665       -0.0005499496       -0.0004311598
O        -0.0005524659        0.0001443681       -0.0004291241
O         0.0001533140        0.0006110149       -0.0006475166
O         0.0001405559       -0.0006524423       -0.0003137258
O         0.0006050940       -0.0005075743       -0.0003540680
O         0.0001545073        0.0001438831        0.0008104744
O        -0.0005506564        0.0005911957        0.0002692765
O         0.0005848831       -0.0006489005        0.0001881963
O         0.0001456879       -0.0004896656        0.0005195472
O        -0.0005079376        0.0006065202        0.0003520377
O        -0.0006525917        0.0001425971        0.0003151193
O        -0.0006478862        0.0005890389       -0.0001892101
O        -0.0004879454        0.0001451446       -0.0005211246
O         0.0005957509       -0.0005528484       -0.0002707791
O         0.0001426788        0.0001602831       -0.0008101633
O         0.0001416664       -0.0005516228        0.0004326500
O         0.0006090831        0.0001558748        0.0006481323
O         0.0006973472        0.0001233574       -0.0002014519
O         0.0004947381        0.0003240960       -0.0003664601
O         0.0001024308        0.0004954961       -0.0002174886
O         0.0003251686        0.0006924208       -0.0003321460
O         0.0004959650        0.0001037501        0.0002170180
O         0.0006925226        0.0003261114        0.0003304177
O         0.0003251829        0.0004913146        0.0003650155
O         0.0001226884        0.0006978317        0.0002043732
O         0.0006990531       -0.0005962068       -0.0001909892
O         0.0004949332       -0.0001121802       -0.0002134528
O        -0.0003430232        0.0004939060       -0.0003608695
O        -0.0001271866        0.0007022948       -0.0003146023
O         0.0005054642       -0.0006083662        0.0002796270
O         0.0006960116       -0.0001377413        0.0002028565
O        -0.0001255419        0.0005058789        0.0004376982
O        -0.0003437193        0.0006929251        0.0003312337
O        -0.0005933155        0.0007014934        0.0001916157
O        -0.0001182355        0.0004955787        0.0002137559
O        -0.0001326369        0.0006958550       -0.0002016419
O        -0.0006077381        0.0005070242       -0.0002789088
O         0.0005063187       -0.0001237227       -0.0004386163
O         0.0006926790       -0.0003435314       -0.0003306279
O         0.0007023585       -0.0001275000        0.0003154118
O         0.0004943075       -0.0003424145        0.0003613265
O         0.0007012851        0.0001429742       -0.0003193693
O         0.0005059743        0.0006001825       -0.0002746378
O         0.0001403440        0.0005094878       -0.0004382634
O         0.0005854285        0.0006987615       -0.0001911292
O         0.0005084614        0.0001380628        0.0004388283
O         0.0006988108        0.0005848491        0.0001898274
O         0.0005962677        0.0005092201        0.0002760860
O         0.0001426732        0.0007025282        0.0003188164
     192
 i =        2, E =     -5776.6009578995
Ti         0.0000892462        0.0000896662       -0.0000011034
Ti        -0.0003740154       -0.0003757334        0.0000003812
Ti         0.0000834651       -0.0003631355        0.0004853800
Ti        -0.0003642299        0.0000840535       -0.0004844253
Ti         0.0000851857       -0.0010145940        0.0001048597
Ti        -0.0003648592       -0.0000892816        0.0004765193
Ti         0.0003440680       -0.0003766339       -0.0000167875
Ti        -0.0007695806        0.0000795253       -0.0000727190
Ti        -0.0003857612       -0.0010170796       -0.0005849610
Ti         0.0000897396       -0.0000937184        0.0000095987
Ti        -0.0007643806       -0.0004001747       -0.0004223410
Ti         0.0003315427        0.0000850977        0.0005060677
Ti        -0.0010162573        0.0000836164       -0.0001045668
Ti        -0.0000907140       -0.0003646901       -0.0004768262
Ti        -0.0000942227        0.0000926202       -0.0000091588
Ti        -0.0010179483       -0.0003882989        0.0005870692
Ti        -0.0004013648       -0.0007647226        0.0004230249
Ti         0.0000845122        0.0003317263       -0.0005061798
Ti         0.0000798139       -0.0007700797        0.0000751619
Ti        -0.0003771698        0.0003434877        0.0000218613
Ti         0.0000786098        0.0008292569       -0.0000717172
Ti        -0.0003856873        0.0009906508        0.0005784573
Ti         0.0008221047       -0.0004027117        0.0004238798
Ti         0.0009875691        0.0000846801        0.0000967523
Ti        -0.0004009462        0.0008241414       -0.0004255907
Ti         0.0000830768        0.0009882075       -0.0000967863
Ti         0.0009918653       -0.0003854290       -0.0005772505
Ti         0.0008321466        0.0000789158        0.0000704872
Ti        -0.0010156879       -0.0010170145       -0.0000004889
Ti        -0.0000943297       -0.0000950507       -0.0000014946
Ti         0.0003689889       -0.0007641206       -0.0004400580
Ti        -0.0007645380        0.0003701537        0.0004392610
Ti        -0.0000918574       -0.0010175572       -0.0001138901
Ti        -0.0010170597       -0.0000907723        0.0001137403
Ti        -0.0007630057       -0.0007643697       -0.0000012501
Ti         0.0003431130        0.0003411589       -0.0000003783
Ti         0.0003304087       -0.0000892901       -0.0004945518
Ti        -0.0007584174       -0.0010272656       -0.0001388722
Ti        -0.0010186988        0.0003541016       -0.0006035979
Ti        -0.0000871338       -0.0007696068       -0.0000683202
Ti        -0.0007726205       -0.0000867212        0.0000664363
Ti         0.0003554899       -0.0010174718        0.0006037563
Ti        -0.0000911872        0.0003334722        0.0004951690
Ti        -0.0010262923       -0.0007603213        0.0001374363
Ti        -0.0010269861        0.0008172670       -0.0001373981
Ti        -0.0000935633        0.0009888947        0.0001039282
Ti         0.0008224897       -0.0007610847        0.0000038733
Ti         0.0009918154        0.0003543098        0.0005943400
Ti        -0.0000885461        0.0008321021        0.0000628600
Ti        -0.0010151829        0.0009911794        0.0000105733
Ti         0.0010016131       -0.0007599883       -0.0001258449
Ti         0.0008212679        0.0003677533       -0.0004419316
Ti         0.0003541595        0.0009923522       -0.0005939101
Ti        -0.0007617683        0.0008240427       -0.0000022352
Ti        -0.0007599825        0.0009998597        0.0001297857
Ti         0.0003697117        0.0008224910        0.0004414619
Ti         0.0009899302       -0.0010116507       -0.0000101003
Ti         0.0008308340       -0.0000872796       -0.0000621861
Ti         0.0008188752       -0.0010263274        0.0001335114
Ti         0.0009883251       -0.0000951490       -0.0001044501
Ti         0.0008230583        0.0008198353        0.0000002662
Ti         0.0009865101        0.0009888316       -0.0000016069
Ti         0.0008192268        0.0010003443       -0.0001236900
Ti         0.0010026297        0.0008183629        0.0001246604
O         0.0000747721        0.0002107338        0.0000140317
O         0.0001101372       -0.0000616568        0.0005290779
O         0.0001859903        0.0000913156        0.0003401472
O        -0.0000561648        0.0000746648        0.0002232067
O         0.0000896833        0.0001874961       -0.0003400894
O         0.0000740221       -0.0000536427       -0.0002216920
O        -0.0000580639        0.0001116716       -0.0005307612
O         0.0002127821        0.0000736276       -0.0000154177
O         0.0000694707        0.0002608079       -0.0004084834
O         0.0000876013       -0.0001620943        0.0003504541
O         0.0000684422        0.0001081289        0.0005592811
O         0.0000707330        0.0000584135       -0.0002938529
O         0.0001350608        0.0002433283        0.0000899423
O         0.0000733287       -0.0001842050       -0.0000240508
O         0.0000673082        0.0001310636       -0.0000223972
O         0.0000653209        0.0000728913       -0.0002517435
O         0.0002635787        0.0000691495        0.0004070574
O        -0.0001636389        0.0000901158       -0.0003532023
O        -0.0001865730        0.0000749598        0.0000250985
O         0.0002440348        0.0001338114       -0.0000903384
O         0.0001304134        0.0000707110        0.0000209672
O         0.0000743020        0.0000628491        0.0002517295
O         0.0000574929        0.0000688872        0.0002927476
O         0.0001072511        0.0000681186       -0.0005587782
O         0.0000581418       -0.0000772992       -0.0002998922
O         0.0001326923       -0.0002637284       -0.0000789486
O        -0.0000776441        0.0001292450        0.0000158588
O        -0.0002829558        0.0000698660       -0.0003973158
O         0.0001301200       -0.0000764685       -0.0000156757
O         0.0000695891       -0.0002809185        0.0003967580
O        -0.0002584838        0.0001352844        0.0000787429
O        -0.0000801385        0.0000568629        0.0002992143
O         0.0005757871        0.0001554527        0.0003870936
O        -0.0000694978       -0.0000531671        0.0002208010
O         0.0001447414       -0.0005561313        0.0005446528
O        -0.0000595781       -0.0000863726        0.0005227768
O        -0.0000708810        0.0002116216       -0.0000097586
O         0.0005622028       -0.0000740571       -0.0005521231
O        -0.0000621165       -0.0005476944       -0.0007093586
O         0.0001929301       -0.0000665545       -0.0003331496
O        -0.0000855340       -0.0000581769       -0.0005220954
O        -0.0005556057        0.0001472598       -0.0005433412
O        -0.0005476084       -0.0000577976        0.0007083979
O        -0.0000652707        0.0001866314        0.0003297821
O        -0.0000727295        0.0005632274        0.0005529793
O         0.0002130386       -0.0000713777        0.0000120299
O         0.0001551560        0.0005760211       -0.0003874150
O        -0.0000541926       -0.0000708081       -0.0002211533
O         0.0005385541        0.0002256663       -0.0001009667
O        -0.0000711453       -0.0001911801        0.0000243172
O         0.0000675430       -0.0005470831        0.0007382263
O         0.0000696367       -0.0001094194        0.0000143578
O        -0.0000615416        0.0002631855        0.0004114149
O         0.0005780948       -0.0001307660       -0.0003975992
O         0.0000776361       -0.0005597407       -0.0001797343
O         0.0000645797       -0.0000847833       -0.0005517008
O        -0.0000624784       -0.0001618924       -0.0003416897
O        -0.0005554075        0.0002402726       -0.0000711830
O         0.0002441605       -0.0001138607        0.0000972138
O        -0.0001204495       -0.0005563583       -0.0005543126
O        -0.0005550874       -0.0001256632        0.0005542021
O        -0.0001122864        0.0002470314       -0.0000986352
O        -0.0001610403       -0.0000626797        0.0003433847
O         0.0002441135       -0.0005553151        0.0000706216
O        -0.0005603935        0.0000750232        0.0001801470
O        -0.0000851607        0.0000666099        0.0005511909
O        -0.0001334488        0.0005754475        0.0003984197
O         0.0002651260       -0.0000620544       -0.0004121669
O        -0.0001096449        0.0000689411       -0.0000153105
O        -0.0005469671        0.0000681740       -0.0007384874
O         0.0002219649        0.0005402176        0.0001003025
O        -0.0001866085       -0.0000707855       -0.0000245648
O        -0.0000683165        0.0000652271       -0.0002475324
O         0.0005208766        0.0000700358        0.0000191509
O         0.0000705147       -0.0000528362        0.0002942388
O         0.0000788696        0.0005605933       -0.0005816620
O         0.0005612110        0.0000770016        0.0005812152
O        -0.0000513080        0.0000712168       -0.0002944530
O         0.0000633835       -0.0000688240        0.0002486860
O         0.0000703044        0.0005223898       -0.0000171847
O         0.0005209305       -0.0000785115       -0.0000240251
O        -0.0000635697       -0.0002827546       -0.0003981267
O        -0.0000880455       -0.0005599037        0.0001723242
O        -0.0002615399       -0.0001112491       -0.0000847087
O        -0.0000512677       -0.0000792522        0.0003018805
O         0.0005440393       -0.0002376719        0.0000865320
O        -0.0002602165       -0.0005551355       -0.0000843513
O        -0.0000772836       -0.0001112432       -0.0000073765
O        -0.0001132345       -0.0002634983        0.0000841393
O        -0.0005598473       -0.0000838913       -0.0001720383
O        -0.0005547541       -0.0002583516        0.0000838597
O        -0.0001107695       -0.0000778856        0.0000073103
O        -0.0002406541        0.0005439585       -0.0000861054
O        -0.0000797693       -0.0000513899       -0.0003026609
O        -0.0000766131        0.0005215656        0.0000256459
O        -0.0002812941       -0.0000659563        0.0003969308
O         0.0005354532        0.0001477952        0.0005468209
O        -0.0005689077       -0.0000756242        0.0005416116
O         0.0001587241       -0.0005840507        0.0003764131
O        -0.0000596599        0.0005279126        0.0007103655
O        -0.0005828723        0.0001599969       -0.0003757157
O         0.0005262595       -0.0000602743       -0.0007091001
O        -0.0000733166       -0.0005695935       -0.0005433615
O         0.0001459853        0.0005357154       -0.0005454578
O         0.0005349939        0.0002390510        0.0000682649
O        -0.0005831869       -0.0001356077        0.0003879020
O         0.0000802407       -0.0005693970        0.0005721529
O         0.0000761344        0.0005384922        0.0001736150
O        -0.0005487088        0.0002247535        0.0001087724
O         0.0005375712       -0.0001210345       -0.0005550112
O         0.0000705981       -0.0005279039        0.0000254401
O         0.0000669840        0.0005260922       -0.0007376227
O         0.0002413210        0.0005343363       -0.0000681062
O        -0.0001359455       -0.0005848042       -0.0003874958
O        -0.0001208912        0.0005367938        0.0005573142
O         0.0002250890       -0.0005479933       -0.0001095138
O        -0.0005273927        0.0000699846       -0.0000260400
O         0.0005269361        0.0000665308        0.0007375928
O         0.0005376964        0.0000770985       -0.0001737054
O        -0.0005675278        0.0000866414       -0.0005717142
O         0.0005374708       -0.0000851417        0.0001653118
O        -0.0005509811       -0.0002413765       -0.0000948992
O        -0.0000756946       -0.0005277659       -0.0000320971
O        -0.0002576347        0.0005347503        0.0000822655
O        -0.0005263807       -0.0000802542        0.0000316237
O         0.0005341031       -0.0002558130       -0.0000827603
O        -0.0002412454       -0.0005499364        0.0000950414
O        -0.0000868051        0.0005385291       -0.0001648729
     192
 i =        3, E =     -5776.6012361061
Ti         0.0001443282        0.0001447319       -0.0000000204
Ti        -0.0000285467       -0.0000294595        0.0000006152
Ti         0.0001377845       -0.0000226124        0.0003483767
Ti        -0.0000247924        0.0001378129       -0.0003499232
Ti         0.0001361600       -0.0000612202        0.0003107258
Ti        -0.0000250110       -0.0001294646        0.0003409161
Ti         0.0000296843       -0.0000292819       -0.0000239101
Ti        -0.0003743184        0.0001288533        0.0004189796
Ti        -0.0000316960       -0.0000697814       -0.0006494891
Ti         0.0001453576       -0.0001377553        0.0000078392
Ti        -0.0003789138       -0.0000421552       -0.0007614980
Ti         0.0000248303        0.0001379264        0.0003737424
Ti        -0.0000613369        0.0001359077       -0.0003096484
Ti        -0.0001299977       -0.0000237437       -0.0003395334
Ti        -0.0001385508        0.0001467313       -0.0000085503
Ti        -0.0000704690       -0.0000322767        0.0006504050
Ti        -0.0000428931       -0.0003789677        0.0007617560
Ti         0.0001373251        0.0000235277       -0.0003727095
Ti         0.0001296001       -0.0003755451       -0.0004179008
Ti        -0.0000308630        0.0000287429        0.0000242742
Ti         0.0001280466        0.0003819388        0.0004143204
Ti        -0.0000319850        0.0000504590        0.0006287337
Ti         0.0003838674       -0.0000418612        0.0007563672
Ti         0.0000426207        0.0001367179        0.0002881663
Ti        -0.0000420296        0.0003855904       -0.0007578397
Ti         0.0001367967        0.0000423514       -0.0002895521
Ti         0.0000509995       -0.0000322446       -0.0006274401
Ti         0.0003825948        0.0001284377       -0.0004152797
Ti        -0.0000759393       -0.0000759470        0.0000005131
Ti        -0.0001385711       -0.0001389186       -0.0000002828
Ti         0.0000407622       -0.0003792416       -0.0007847038
Ti        -0.0003785362        0.0000414128        0.0007847053
Ti        -0.0001284205       -0.0000630341       -0.0003195022
Ti        -0.0000623758       -0.0001280545        0.0003193316
Ti        -0.0004007149       -0.0004007524       -0.0000007681
Ti         0.0000281990        0.0000282876       -0.0000001034
Ti         0.0000239662       -0.0001302013       -0.0003643046
Ti        -0.0003877178       -0.0000881094        0.0001325922
Ti        -0.0000688521        0.0000293606       -0.0006728733
Ti        -0.0001209170       -0.0003748142        0.0004267018
Ti        -0.0003760282       -0.0001213377       -0.0004266551
Ti         0.0000314937       -0.0000700201        0.0006736926
Ti        -0.0001306574        0.0000257775        0.0003633570
Ti        -0.0000879001       -0.0003886092       -0.0001333869
Ti        -0.0000866239        0.0003930146        0.0001258278
Ti        -0.0001299423        0.0000428069        0.0002972426
Ti         0.0004052234       -0.0003997703       -0.0000068715
Ti         0.0000518466        0.0000322751        0.0006521312
Ti        -0.0001217190        0.0003817572       -0.0004234173
Ti        -0.0000759203        0.0000584461        0.0000220435
Ti         0.0000715759       -0.0003872192        0.0001545078
Ti         0.0003837124        0.0000390322       -0.0007790585
Ti         0.0000313767        0.0000519202       -0.0006517670
Ti        -0.0003997997        0.0004062109        0.0000077182
Ti        -0.0003883863        0.0000701288       -0.0001533522
Ti         0.0000402594        0.0003844170        0.0007791735
Ti         0.0000583291       -0.0000748631       -0.0000211270
Ti         0.0003813000       -0.0001226426        0.0004231742
Ti         0.0003934082       -0.0000865958       -0.0001266456
Ti         0.0000433320       -0.0001311758       -0.0002961509
Ti         0.0004051211        0.0004042866       -0.0000000927
Ti         0.0000575590        0.0000580588       -0.0000003648
Ti         0.0003921828        0.0000705306        0.0001474426
Ti         0.0000711805        0.0003928908       -0.0001475820
O        -0.0000830954       -0.0001409248        0.0002662579
O        -0.0000231768        0.0000421717        0.0006635981
O        -0.0001479320       -0.0000183413        0.0002338951
O         0.0000605597       -0.0000838659        0.0006788675
O        -0.0000187193       -0.0001468597       -0.0002349089
O        -0.0000834870        0.0000598718       -0.0006790151
O         0.0000436587       -0.0000243447       -0.0006634260
O        -0.0001399434       -0.0000819723       -0.0002657834
O        -0.0000781187        0.0001754213       -0.0000740376
O        -0.0000183160        0.0001646525        0.0002338855
O        -0.0000338974       -0.0000235994        0.0006802325
O         0.0001922548       -0.0000736052       -0.0000029469
O        -0.0000182257        0.0001651979        0.0001313302
O        -0.0000820930        0.0001595363       -0.0002644974
O         0.0001858288       -0.0000109764        0.0000872247
O        -0.0000508894       -0.0000830050       -0.0006948370
O         0.0001760893       -0.0000781627        0.0000745491
O         0.0001640597       -0.0000184411       -0.0002344779
O         0.0001599874       -0.0000824156        0.0002645075
O         0.0001651032       -0.0000187780       -0.0001311112
O        -0.0000091593        0.0001875005       -0.0000880322
O        -0.0000840785       -0.0000524189        0.0006950018