     192
 i =        1, E =     -5776.6002861782
Ti        -0.0007052969       -0.0007090896       -0.0000017068
Ti         1.8926490770        1.8926544358        4.8075058976
Ti        -0.0006802217        1.8926579537        2.4026402339
Ti         1.8926752035       -0.0006878113        7.2123712094
Ti        -0.0006577165        3.7811613794        0.0016836295
Ti         1.8926824347       13.2394858010        4.8063801805
Ti        11.3461834854        1.8926510738        2.4037169032
Ti         5.6738542789       -0.0006575020        7.2133541393
Ti         1.8926239103        3.7811785969        7.2107025767
Ti        -0.0007048668       13.2394921895        2.4037776217
Ti         5.6738658698        1.8926155608        4.8065284938
Ti        11.3461599314       -0.0006812432       -0.0010874908
Ti         3.7811639204       -0.0006493763       -0.0016820147
Ti        13.2394741148        1.8926683704        4.8086321462
Ti        13.2395075338       -0.0007161694        7.2112631577
Ti         3.7811870170        1.8926420284        2.4043257368
Ti         1.8926146277        5.6738657939        4.8084806933
Ti        -0.0006835948       11.3461689875        0.0010851727
Ti        -0.0006613641        5.6738524806        2.4016562771
Ti         1.8926660186       11.3461833655        7.2112946943
Ti        -0.0006493854        7.5651029289        0.0020769703
Ti         1.8926476355        9.4577319798        4.8080496756
Ti         7.5650992334        1.8926263773        2.4047239969
Ti         9.4577505668       -0.0006690840        7.2129244591
Ti         1.8926198907        7.5650917012        7.2103042493
Ti        -0.0006563294        9.4577435381        2.4020983847
Ti         9.4577228895        1.8926382960        4.8069732776
Ti         7.5650834967       -0.0006412935       -0.0020791984
Ti         3.7811877893        3.7811960068        0.0000003127
Ti        13.2395026576       13.2395085050        4.8075046872
Ti        11.3462275625        5.6738582466        2.4027510526
Ti         5.6738670585       11.3462180903        7.2122684865
Ti        13.2394525124        3.7811657699        7.2095785160
Ti         3.7811708771       13.2394524961        2.4054540963
Ti         5.6738621657        5.6738623363        4.8075105110
Ti        11.3461864205       11.3461900430       -0.0000002665
Ti        11.3461705790       13.2394766212        2.4048595272
Ti         5.6738592461        3.7811851693        7.2116798037
Ti         3.7811930183       11.3462271735       -0.0006003053
Ti        13.2394464146        5.6738496712        4.8096179907
Ti         5.6738710547       13.2394562226        4.8054108494
Ti        11.3462063194        3.7811878725        0.0005894160
Ti        13.2394759096       11.3461511162        7.2101670362
Ti         3.7811787877        5.6738616527        2.4033482095
Ti         3.7811902977        7.5651089022        0.0004071100
Ti        13.2394746829        9.4577469166        4.8091789089
Ti         7.5650986623        5.6738503897        2.4037388326
Ti         9.4577258874       11.3461999057        7.2118342899
Ti        13.2394513213        7.5650856630        7.2091832677
Ti         3.7811774120        9.4577116014        2.4037833916
Ti         9.4577298593        5.6738697551        4.8079493601
Ti         7.5651034565       11.3462363157       -0.0009894794
Ti        11.3462165512        9.4577307275        2.4031876707
Ti         5.6738498554        7.5650925240        7.2112759805
Ti         5.6738602618        9.4577421122        4.8070683315
Ti        11.3462240326        7.5650962189        0.0009853859
Ti         9.4577233794        3.7811669636        7.2112428385
Ti         7.5650945248       13.2394528687        2.4058375812
Ti         7.5650871998        3.7811849637       -0.0004022595
Ti         9.4577500168       13.2394772843        4.8058430805
Ti         7.5650946403        7.5651045379       -0.0000006109
Ti         9.4577382531        9.4577377201        4.8075125141
Ti         7.5650875792        9.4577318742        2.4041757337
Ti         9.4577210337        7.5650859728        7.2108437585
O         0.0012629276        0.0025934558        1.9903366591
O         1.8841078760        1.8897393712        6.7959887911
O         0.0025739567        1.8839250684        4.3932541640
O         1.8896828465        0.0012503773        9.2005209904
O         1.8839035669        0.0025788252        5.2217691144
O         0.0012593571        1.8896779383        0.4144915137
O         1.8897352442        1.8840905412        2.8190333268
O         0.0026088315        0.0012863643        7.6246801953
O         0.0012569717        3.7816278073        1.9902651104
O         1.8839010209       13.2361732125        6.7969923705
O        11.3490765829        1.8840935644        4.3921975091
O         5.6727727503        0.0012408097        9.2018903589
O         1.8843329036        3.7816485725        5.2216974486
O         0.0012838288       13.2361469945        0.4134293293
O         5.6727933148        1.8843879979        2.8175491009
O        11.3491426765        0.0012672640        7.6257806998
O         3.7816313698        0.0012678560        7.6247597172
O        13.2361826772        1.8839102123        2.8180294099
O        13.2361450625        0.0012619438        9.2016057894
O         3.7816478172        1.8843444615        4.3933323245
O         1.8844288026        5.6727818752        6.7974678900
O         0.0012527357       11.3491371515        1.9892373877
O         0.0012718019        5.6727827469        0.4131294677
O         1.8840688959       11.3490921004        5.2228161384
O         0.0012546338        7.5662087954        1.9906072877
O         1.8843096810        9.4572650511        6.7970600318
O         7.5662059847        1.8844250120        4.3936965337
O         9.4572728009        0.0012387555        9.2015146662
O         1.8844031274        7.5662048763        5.2213308821
O         0.0012566700        9.4572788907        0.4135105655
O         9.4572549854        1.8843065701        2.8179612760
O         7.5662189944        0.0012680618        7.6244154082
O         3.7746351323        0.0025552346        1.9890220684
O        13.2372100413        1.8896781490        6.7967642747
O         0.0025371289        5.6703878778        4.3924782310
O         1.8897391336       11.3545663970        9.1997712601
O        13.2371588203        0.0026036986        5.2209227145
O         3.7747241854        1.8898001703        0.4156750722
O         1.8898070337        5.6704038554        2.8196852447
O         0.0025655151       11.3547884360        7.6254954365
O        11.3545794378        1.8897388802        0.4152465334
O         5.6703632768        0.0025423689        5.2225344600
O         5.6704101590        1.8898053128        6.7953262613
O        11.3547952686        0.0025710202        1.9895334570
O         1.8897962033        3.7747212436        9.1993501386
O         0.0026034120       13.2371615832        4.3941091587
O         0.0025497064        3.7746317407        7.6259949635
O         1.8896822655       13.2372293773        2.8182482462
O         3.7748423021        3.7816651989        1.9893058129
O        13.2371797605       13.2361511453        6.7978239626
O        11.3490158124        5.6703975589        4.3915399913
O         5.6727924317       11.3542519070        9.2012375955
O        13.2372259445        3.7816253482        5.2210020588
O         3.7746072655       13.2362113485        0.4147454322
O         5.6727889466        5.6704048771        2.8179216481
O        11.3490872740       11.3546155081        7.6265468068
O        11.3547646281       13.2361792055        0.4142408575
O         5.6703901333        3.7816655155        5.2221606768
O         3.7816544186       11.3543606963        7.6254278305
O        13.2362140212        5.6703894168        2.8187943799
O         5.6703899105       13.2362184328        6.7962312612
O        11.3543604819        3.7816388489        1.9895898824
O        13.2361753691       11.3547735059        9.2007800294
O         3.7816588489        5.6704088397        4.3928772748
O         5.6704046191        5.6727971625        6.7971021517
O        11.3545853300       11.3490926549        1.9884733239
O        13.2362078359        3.7746326193        9.2002821684
O         3.7816354193       13.2371927945        4.3940267626
O        11.3542670235        5.6727891655        0.4137898279
O         5.6703853383       11.3490265608        5.2234800597
O         3.7816664473        3.7748348638        7.6257144528
O        13.2361513977       13.2371839016        2.8171745127
O        13.2371951473       11.3491434108        5.2220227020
O         3.7748656078        5.6727990190        0.4139993631
O         5.6727802236       13.2372526315        2.8168973880
O        11.3490321196        3.7747335173        7.6269657447
O         3.7747230406       11.3490259337        1.9880507226
O        13.2372409553        5.6727737114        6.7981293780
O        11.3491402761       13.2371890920        4.3930053327
O         5.6727910797        3.7748589865        9.2010194877
O         3.7748760190        7.5661913872        1.9897376651
O        13.2372482774        9.4572694256        6.7977486525
O         7.5662090627        5.6704015462        4.3933323934
O         9.4572617301       11.3543480120        9.2008332305
O        13.2372292930        7.5662107069        5.2206642744
O         3.7748047684        9.4572510642        0.4144831486
O         9.4572484519        5.6704123483        2.8184341590
O         7.5662049740       11.3542784670        7.6250641175
O        11.3543555279        9.4572614826        0.4141952967
O         5.6703972290        7.5662009339        5.2216806371
O         5.6704154066        9.4572395958        6.7965865443
O        11.3542702688        7.5662076996        1.9899609179
O         9.4572396109        3.7748162296        9.2005446959
O         7.5662183589       13.2372040046        4.3943610517
O         7.5661953984        3.7748712975        7.6252742147
O         9.4572731747       13.2372434320        2.8172741828
O         7.5688622943        0.0025404997        1.9887352724
O         9.4642127499        1.8897861744        6.7956030358
O         0.0025654737        9.4643196667        4.3927886372
O         1.8898141919        7.5688120851        9.1990938670
O         9.4643143140        0.0025590696        5.2222335601
O         7.5688413698        1.8898140505        0.4159344256
O         1.8897868643        9.4642298977        2.8194253676
O         0.0025427198        7.5688658303        7.6262738909
O         7.5688146799        3.7816668219        1.9891176780
O         9.4643224630       13.2361986235        6.7965257297
O        11.3490422816        9.4642175262        4.3918155441
O         5.6727949532        7.5688183963        9.2008647016
O         9.4641157458        3.7816676543        5.2219601375
O         7.5688359354       13.2362250115        0.4150141685
O         5.6727834697        9.4640645851        2.8177527527
O        11.3490154101        7.5688475232        7.6272151731
O         3.7816619932        7.5688248514        7.6259036877
O        13.2362132533        9.4643223914        2.8184938203
O        13.2362166008        7.5688370026        9.1999977895
O         3.7816664263        9.4641051823        4.3930617782
O         9.4640603811        5.6727848370        6.7972680802
O         7.5688424515       11.3490194823        1.9878004131
O         7.5688340906        5.6727918020        0.4141536096
O         9.4642105503       11.3490351566        5.2232083828
O         7.5688295078        7.5661954214        1.9895957530
O         9.4641196693        9.4572377081        6.7967947349
O         7.5661910284        9.4640462806        4.3934955662
O         9.4572414452        7.5688207923        9.2003551413
O         9.4640450663        7.5662115032        5.2215235371
O         7.5688249826        9.4572435516        0.4146685740
O         9.4572438074        9.4641018381        2.8182289690
O         7.5661959751        7.5688240885        7.6254252420
     192
 i =        2, E =     -5776.6009578995
Ti         0.0006790232        0.0006705918        0.0000029355
Ti         1.8899635460        1.8899719733        4.8075071432
Ti         0.0006634496        1.8898912988        2.4016892739
Ti         1.8898996328        0.0006625470        7.2133263053
Ti         0.0006638934        3.7783296410        0.0027899596
Ti         1.8899070857       13.2379436581        4.8054209654
Ti        11.3487762680        1.8899663686        2.4036857329
Ti         5.6726761297        0.0006412257        7.2153971415
Ti         1.8900496996        3.7783658284        7.2105212907
Ti         0.0006741621       13.2379243158        2.4037830741
Ti         5.6727001342        1.8900593683        4.8054504719
Ti        11.3488438403        0.0006598389       -0.0020075438
Ti         3.7783317731        0.0006743921       -0.0027822607
Ti        13.2379421123        1.8898993983        4.8095994091
Ti        13.2379320949        0.0006631304        7.2112435487
Ti         3.7783758229        1.8900628497        2.4044974870
Ti         1.8900585989        5.6727052516        4.8095681309
Ti         0.0006632609       11.3488458699        0.0020042058
Ti         0.0006379081        5.6726793766        2.3996130484
Ti         1.8899755187       11.3487774688        7.2113227681
Ti         0.0006475773        7.5664262951        0.0041002582
Ti         1.8900580017        9.4605743676        4.8081771593
Ti         7.5664124596        1.8900691175        2.4057801697
Ti         9.4606090192        0.0006596537        7.2139812406
Ti         1.8900626908        7.5664003392        7.2092428359
Ti         0.0006689053        9.4606076263        2.4010458799
Ti         9.4605722162        1.8900563094        4.8068454331
Ti         7.5664139317        0.0006518150       -0.0040989339
Ti         3.7784167584        3.7784284827        0.0000001582
Ti        13.2379358570       13.2379356658        4.8075178363
Ti        11.3486930381        5.6727008593        2.4016305038
Ti         5.6727063559       11.3486848889        7.2133908139
Ti        13.2379467796        3.7783294527        7.2084593566
Ti         3.7783394256       13.2379485952        2.4065687720
Ti         5.6727219919        5.6727294391        4.8075087594
Ti        11.3487834146       11.3487888510        0.0000012415
Ti        11.3488530584       13.2379427177        2.4057859841
Ti         5.6727179778        3.7783964632        7.2124913545
Ti         3.7783729777       11.3487065075       -0.0008047638
Ti        13.2379698192        5.6726753990        4.8116731617
Ti         5.6726923377       13.2379677056        4.8033525658
Ti        11.3486903906        3.7783698805        0.0008039209
Ti        13.2379478567       11.3488321183        7.2092336634
Ti         3.7783920651        5.6727272001        2.4025287216
Ti         3.7784002947        7.5663876171        0.0012025015
Ti        13.2379583915        9.4606053379        4.8102465446
Ti         7.5663857916        5.6727206339        2.4037203009
Ti         9.4605767652       11.3486912581        7.2119892307
Ti        13.2379702599        7.5664141470        7.2071434800
Ti         3.7784142722        9.4605229680        2.4038254338
Ti         9.4605466573        5.6727304900        4.8088150720
Ti         7.5664156428       11.3486981209       -0.0020891326
Ti        11.3487008279        9.4605713588        2.4030271496
Ti         5.6727173629        7.5663789925        7.2112939258
Ti         5.6727263668        9.4605516956        4.8061974024
Ti        11.3486877364        7.5664120468        0.0020869188
Ti         9.4605192236        3.7784047563        7.2111922308
Ti         7.5664280409       13.2379728256        2.4078745718
Ti         7.5663750330        3.7784014155       -0.0011974361
Ti         9.4606152812       13.2379597276        4.8047768383
Ti         7.5663805586        7.5663907985        0.0000000116
Ti         9.4605363820        9.4605291116        4.8075106522
Ti         7.5663799330        9.4605453517        2.4050248684
Ti         9.4605360628        7.5663775451        7.2099948128
O         0.0009150121        0.0013714543        1.9880645544
O         1.8846887519        1.8890064458        6.7929129795
O         0.0014185164        1.8846795942        4.3910778928
O         1.8889637351        0.0009400536        9.1973889164
O         1.8846867101        0.0014167706        5.2239450168
O         0.0009420047        1.8889572152        0.4176265141
O         1.8890000398        1.8846826598        2.8221105597
O         0.0013711394        0.0009186581        7.6269604560
O         0.0009427476        3.7784683628        1.9886840617
O         1.8846951359       13.2371640429        6.7948061121
O        11.3497042017        1.8846953680        4.3890872347
O         5.6715410417        0.0009601431        9.2008181486
O         1.8845788581        3.7785382506        5.2232166867
O         0.0009210165       13.2371990364        0.4157162083
O         5.6715722372        1.8845795891        2.8185838324
O        11.3497452184        0.0009456741        7.6289529608
O         3.7784659873        0.0009460211        7.6263389000
O        13.2371653601        1.8846843251        2.8202240658
O        13.2372061018        0.0009112150        9.1993009705
O         3.7785352556        1.8845885953        4.3917995374
O         1.8845829418        5.6715587960        6.7964430595
O         0.0009420739       11.3497487944        1.9860691773
O         0.0009602959        5.6715471014        0.4142049812
O         1.8846987252       11.3497083500        5.2259254146
O         0.0009603447        7.5675833701        1.9895051935
O         1.8845935951        9.4604037320        6.7954863145
O         7.5675667642        1.8845911218        4.3926405755
O         9.4604700819        0.0009393979        9.1998819456
O         1.8845855864        7.5675662106        5.2223866248
O         0.0009449978        9.4604644558        0.4151430354
O         9.4603895056        1.8845831810        2.8195353753
O         7.5675877901        0.0009652371        7.6255188511
O         3.7679299433        0.0014886425        1.9870064508
O        13.2375117132        1.8889567470        6.7936272015
O         0.0015061950        5.6649547135        4.3899643691
O         1.8890017872       11.3538069090        9.1966952471
O        13.2375380380        0.0013740671        5.2231964631
O         3.7680833565        1.8890929663        0.4185818358
O         1.8890933308        5.6650030746        2.8230251592
O         0.0014067563       11.3538123715        7.6276673943
O        11.3538058736        1.8889970888        0.4183144443
O         5.6649178923        0.0015026437        5.2250443096
O         5.6650197311        1.8890849618        6.7919927544
O        11.3538074956        0.0014159373        1.9873638823
O         1.8890868106        3.7680793355        9.1964366393
O         0.0013710623       13.2375391177        4.3918134802
O         0.0014877508        3.7679259495        7.6280138979
O         1.8889611366       13.2375180149        2.8213951847
O         3.7681700711        3.7786430183        1.9880105481
O        13.2375398388       13.2372125183        6.7955335496
O        11.3496307465        5.6649958683        4.3881626865
O         5.6715630041       11.3539184844        9.2002236078
O        13.2374997491        3.7784656031        5.2225844934
O         3.7679174182       13.2370980290        0.4167740719
O         5.6715870337        5.6649404569        2.8188606702
O        11.3497173203       11.3538052666        7.6296483148
O        11.3537963070       13.2371624690        0.4164224009
O         5.6649376582        3.7786662218        5.2236853123
O         3.7785387869       11.3539273298        7.6269442777
O        13.2370798552        5.6649580955        2.8213202316
O         5.6649686707       13.2370883969        6.7936996899
O        11.3539192115        3.7785277631        1.9880789521
O        13.2371604002       11.3537958578        9.1985955977
O         3.7786531587        5.6649697782        4.3913395521
O         5.6649455255        5.6715973003        6.7961639768
O        11.3538055365       11.3497154990        1.9853763561
O        13.2371010130        3.7679275922        9.1982444401
O         3.7784635499       13.2375000538        4.3924378304
O        11.3539202366        5.6715633819        0.4148025700
O         5.6649748499       11.3496278453        5.2268616347
O         3.7786491540        3.7681630704        7.6270169738
O        13.2372057400       13.2375378031        2.8194853778
O        13.2375089708       11.3497431841        5.2251984506
O         3.7682298192        5.6715974625        0.4148098387
O         5.6715503174       13.2374961930        2.8179721750
O        11.3496317294        3.7680894929        7.6299172451
O         3.7680893343       11.3496378879        1.9851070384
O        13.2374904382        5.6715384417        6.7970535863
O        11.3497499661       13.2375088819        4.3898221505
O         5.6715970974        3.7682228682        9.2002095882
O         3.7682310064        7.5675325412        1.9889030301
O        13.2375074903        9.4604676524        6.7961145689
O         7.5675450393        5.6649297653        4.3923625329
O         9.4603979594       11.3539148476        9.1992630923
O        13.2374879604        7.5675795852        5.2217691797
O         3.7681426534        9.4602820946        0.4158333015
O         9.4602750092        5.6649682889        2.8200264105
O         7.5675705354       11.3539291731        7.6261061480
O        11.3539229931        9.4604025624        0.4157609248
O         5.6649227529        7.5675342340        5.2226543388
O         5.6649789904        9.4602705730        6.7949913587
O        11.3539282132        7.5675705401        1.9889155902
O         9.4602862350        3.7681450702        9.1991852579
O         7.5675862618       13.2374886518        4.3932590370
O         7.5675232333        3.7682296104        7.6261138433
O         9.4604686340       13.2375167001        2.8189128452
O         7.5747667359        0.0015032116        1.9862370729
O         9.4705765130        1.8890880170        6.7927066893
O         0.0014840133        9.4707336909        4.3907876142
O         1.8890918896        7.5746659704        9.1957703745
O         9.4707292799        0.0014811969        5.2242333340
O         7.5747079983        1.8890943258        0.4192473456
O         1.8890860651        9.4705792603        2.8223207188
O         0.0015066854        7.5747745849        7.6287747217
O         7.5747128721        3.7786686507        1.9876009013
O         9.4707341605       13.2371055889        6.7945103069
O        11.3496339724        9.4705777899        4.3888805727
O         5.6715923511        7.5747394575        9.1999301232
O         9.4705070899        3.7786386555        5.2232519301
O         7.5747212846       13.2370798092        0.4175320682
O         5.6715902323        9.4704381735        2.8185541128
O        11.3496285485        7.5747191112        7.6305857972
O         3.7786643915        7.5747422502        7.6274208483
O        13.2371087805        9.4707379438        2.8205089574
O        13.2370800541        7.5747217739        9.1974764140
O         3.7786361269        9.4705020645        4.3917681404
O         9.4704348896        5.6715966489        6.7964611089
O         7.5747104794       11.3496315811        1.9844335695
O         7.5747620658        5.6715898130        0.4150910498
O         9.4705706657       11.3496202047        5.2261406639
O         7.5747488677        7.5675339017        1.9886217732
O         9.4705156341        9.4602934040        6.7954455736
O         7.5675191527        9.4704348717        4.3926594807
O         9.4602664413        7.5747195120        9.1987645776
O         9.4704268742        7.5675382159        5.2223595457
O         7.5747257533        9.4602640162        0.4162583138
O         9.4602926140        9.4705108523        2.8195801709
O         7.5675357849        7.5747489359        7.6263980898
     192
 i =        3, E =     -5776.6012361061
Ti         0.0005117348        0.0005092078        0.0000000191
Ti         1.8889492445        1.8889564379        4.8075050689
Ti         0.0005249512        1.8889175579        2.4024527571
Ti         1.8889283822        0.0005233780        7.2125676465
Ti         0.0005566035        3.7759205156        0.0026673502
Ti         1.8889367714       13.2380338422        4.8061858007
Ti        11.3497325266        1.8889515307        2.4036987267
Ti         5.6712019492        0.0005451550        7.2156192612
Ti         1.8889973296        3.7759483473        7.2098453112
Ti         0.0005093690       13.2380433413        2.4037805565
Ti         5.6712162490        1.8889904847        4.8044144423
Ti        11.3497545257        0.0005231732       -0.0012573250
Ti         3.7759206483        0.0005660754       -0.0026618320
Ti        13.2380313416        1.8889257051        4.8088317107
Ti        13.2380527373        0.0004996623        7.2112482666
Ti         3.7759578809        1.8890089662        2.4051745057
Ti         1.8889894359        5.6712211969        4.8106026007
Ti         0.0005269126       11.3497612766        0.0012501510
Ti         0.0005430488        5.6712048307        2.3993929890
Ti         1.8889627367       11.3497314072        7.2113165171
Ti         0.0005542191        7.5680117326        0.0042886661
Ti         1.8890092187        9.4629599112        4.8088311836
Ti         7.5680089106        1.8889990251        2.4067830360
Ti         9.4629843361        0.0005478332        7.2138388551
Ti         1.8889944698        7.5679967909        7.2082401006
Ti         0.0005541182        9.4629846662        2.4011901403
Ti         9.4629587568        1.8890087561        4.8061906276
Ti         7.5680036866        0.0005571918       -0.0042875342
Ti         3.7760214905        3.7760295149       -0.0000011635
Ti        13.2380570728       13.2380553171        4.8075168083
Ti        11.3497025394        5.6712208934        2.4006065732
Ti         5.6712239696       11.3496942819        7.2144132940
Ti        13.2380004264        3.7759191703        7.2085860887
Ti         3.7759288958       13.2380031439        2.4064408699
Ti         5.6712192675        5.6712260943        4.8075078583
Ti        11.3497394495       11.3497407484        0.0000004212
Ti        11.3497636623       13.2380332463        2.4050326424
Ti         5.6712248698        3.7759856850        7.2128285159
Ti         3.7759534065       11.3497007093       -0.0014696006
Ti        13.2380117980        5.6712017505        4.8118870108
Ti         5.6712142960       13.2380129154        4.8031350544
Ti        11.3496821312        3.7759525574        0.0014683969
Ti        13.2380384899       11.3497427443        7.2099921367
Ti         3.7759817409        5.6712326140        2.4021907625
Ti         3.7759929983        7.5679941697        0.0015113350
Ti        13.2380133883        9.4629836719        4.8100974490
Ti         7.5680018330        5.6712218104        2.4036979312
Ti         9.4629596912       11.3496789716        7.2126307771
Ti        13.2380090828        7.5680041474        7.2069599534
Ti         3.7760187488        9.4628860950        2.4038495337
Ti         9.4629207688        5.6712347892        4.8091814839
Ti         7.5680083218       11.3497067801       -0.0030806559
Ti        11.3496874127        9.4629559674        2.4023847461
Ti         5.6712193289        7.5679961564        7.2113181571
Ti         5.6712343669        9.4629260512        4.8058347125
Ti        11.3496979358        7.5680046530        0.0030772424
Ti         9.4628804561        3.7760121055        7.2111666429
Ti         7.5680167660       13.2380138648        2.4080606174
Ti         7.5679839379        3.7759950922       -0.0015096355
Ti         9.4629897455       13.2380206338        4.8049234822
Ti         7.5679966608        7.5680033489        0.0000011991
Ti         9.4628954745        9.4628935930        4.8075097193
Ti         7.5679894217        9.4629159370        2.4053631937
Ti         9.4629084729        7.5679858519        7.2096566067
O         0.0013503053        0.0016201272        1.9872999356
O         1.8848069896        1.8877012356        6.7926419652
O         0.0016241648        1.8847194935        4.3916169836
O         1.8876576074        0.0013836656        9.1958674449
O         1.8847228123        0.0016227892        5.2234097678
O         0.0013809871        1.8876566287        0.4191547750
O         1.8876977267        1.8848108607        2.8223766116
O         0.0016215206        0.0013445722        7.6277188124
O         0.0013569419        3.7770091349        1.9867977293
O         1.8847220622       13.2369165776        6.7953725186
O        11.3509644511        1.8848062984        4.3888931925
O         5.6710703314        0.0013202236        9.2000439560
O         1.8847725075        3.7770387976        5.2237831369
O         0.0013462835       13.2369148568        0.4164507220
O         5.6710950646        1.8847412080        2.8180394610
O        11.3510074413        0.0013779769        7.6304037998
O         3.7770104535        0.0013573651        7.6282204148
O        13.2369172741        1.8847210915        2.8196518867
O        13.2369154588        0.0013469231        9.1985671847
O         3.7770378232        1.8847757212        4.3912314461
O         1.8847350218        5.6710852260        6.7969846931
O         0.0013837483       11.3510101123        1.9846159556