     192
 i =        1, E =     -5781.8392952831
Ti        -0.0631155466        0.0938774075        0.0655853862
Ti         1.8667266689        1.9236840260        4.8991342515
Ti         0.0469717458        2.0300676165        2.5306070615
Ti         1.8641411183       -0.0465940045        7.1727195771
Ti        -0.0337129381        3.8291643122       -0.0534096901
Ti         1.9498004429       13.1920501824        4.8336963550
Ti        11.2881350514        1.9808523750        2.4508364866
Ti         5.6073238745       -0.0901460225        7.2230027644
Ti         1.9053511978        3.8181552963        7.2356294688
Ti         0.0251117821       13.3470516227        2.4744174577
Ti         5.6780404405        1.8357766708        4.8274784926
Ti        11.3029758153        0.1154889073       -0.0448910378
Ti         3.6769063989        0.0969504559        0.0487578960
Ti        13.1229715628        1.7699894951        4.7045201995
Ti        13.2666908922       -0.0450882262        7.1547385618
Ti         3.7507728142        1.8027465335        2.5218732707
Ti         1.9716088073        5.6387021574        4.8509434840
Ti         0.0016832374       11.5701972627        0.0035864423
Ti        -0.0223749142        5.7230509361        2.4872538065
Ti         1.8987953975       11.3180804167        7.3610705399
Ti         0.0702729138        7.4998337861        0.0521931491
Ti         2.0396782165        9.5182280775        4.9043903246
Ti         7.4988260371        1.9569686040        2.3511067094
Ti         9.4691231268       -0.1312133255        7.2262341601
Ti         1.9467167385        7.5788634844        7.1610134100
Ti         0.1326808782        9.5811267665        2.4782221451
Ti         9.3284884476        1.8086210313        4.7678229611
Ti         7.4644346383       -0.0615799143       -0.0794689886
Ti         3.7294012634        3.7832102261       -0.0064861251
Ti        13.2371638709       13.1249251484        4.7427079888
Ti        11.3747148768        5.7264523228        2.3765713549
Ti         5.6789808046       11.3256709636        7.1524354810
Ti        13.1722528761        3.6799920939        7.2406971391
Ti         3.7726256091       13.1623555568        2.4440879831
Ti         5.6797147520        5.7199545044        4.8435776195
Ti        11.2225026035       11.3898498980        0.1079808651
Ti        11.2851432688       13.3341364922        2.3542486626
Ti         5.6587995173        3.7268207978        7.1290532999
Ti         3.8831993096       11.4218979469        0.0418578357
Ti        13.2876233759        5.5838512326        4.9027537285
Ti         5.7975953359       13.2086094845        4.8101492645
Ti        11.2680812488        3.7902623713       -0.0769018699
Ti        13.0947346388       11.3813565421        7.2645648841
Ti         3.7917014911        5.6092981947        2.3936471368
Ti         3.7989600542        7.5569943228        0.0455024000
Ti        13.3031214217        9.4209855129        4.8374373887
Ti         7.5200038851        5.6771819938        2.3894468652
Ti         9.4262320214       11.1423103594        7.1730951201
Ti        13.3045122272        7.5414690525        7.2321907652
Ti         3.8835156933        9.4430881985        2.3385891136
Ti         9.5210769884        5.5608661489        4.7065918022
Ti         7.5322784401       11.3433641542        0.0701560074
Ti        11.4046236823        9.4483296537        2.4127208018
Ti         5.6601138931        7.6065127154        7.2009121538
Ti         5.7790511041        9.4231098025        4.7424408008
Ti        11.3217721976        7.5742245502        0.0062246756
Ti         9.4276136725        3.6452157530        7.1665037100
Ti         7.5400186645       13.3081593098        2.4064318445
Ti         7.4636004581        3.7982737545       -0.0642524501
Ti         9.5121000252       13.2423178918        4.7813554267
Ti         7.5985606108        7.5335925063       -0.0564841569
Ti         9.5304686706        9.3932988552        4.7597776928
Ti         7.6384131612        9.4171232633        2.3231344570
Ti         9.5154758951        7.3580633316        7.1444562833
O         0.0552804179        0.0825597749        2.0915136789
O         1.6670231163        1.9360239206        6.7380101236
O        -0.0704391773        2.0003765921        4.4142585971
O         1.7984673246        0.1485529451        9.2361835558
O         1.8079511892       -0.0173651668        5.2607399687
O        -0.1510733783        2.0054270810        0.4925653878
O         1.8668272300        2.1769362758        2.8329381563
O        -0.0704815091       -0.0501849904        7.6231588448
O        -0.0295282203        3.9093852610        2.0823652154
O         1.9948116346       13.2701833289        6.8237960608
O        11.2874247117        1.8274477101        4.3148765028
O         5.6319608434       -0.0209958639        9.2664616964
O         2.1121786685        3.7577705532        5.1793053922
O         0.0533627675       13.3703705700        0.4375459687
O         5.6317690555        1.8520644272        2.8369362665
O        11.2851869541        0.0676010414        7.5631034736
O         3.7116688912        0.1182671729        7.6907697826
O        13.1896205131        1.8724813145        2.8311067962
O        13.1743909833       -0.1064541626        9.2170704422
O         3.7108646150        1.6488335975        4.3775839477
O         1.9082102335        5.6230560071        6.7416809566
O         0.0590622303       11.4544889213        1.9183548383
O         0.0844166225        5.7204131886        0.4665604476
O         1.9149374127       11.3168725601        5.2357221946
O         0.1226365616        7.7230503796        1.9518426544
O         2.1598536719        9.4636316585        6.7783170850
O         7.4569642510        1.8631202972        4.3602525662
O         9.4160946637        0.0366104424        9.2002457089
O         1.8227212644        7.5679889609        5.2747780886
O         0.1119951830        9.5674682649        0.2720346664
O         9.3700154140        2.0412001142        2.8406587133
O         7.4834477145       -0.1604556002        7.6998318185
O         3.7493758327        0.0574957081        2.0371309271
O        13.2185720272        1.8490992094        6.7824096274
O         0.0048772865        5.6053774052        4.4883973247
O         1.9279500081       11.3544918135        9.2658688889
O        13.1722138656       -0.0302084959        5.1321327750
O         3.7069467447        1.9542321942        0.4340731090
O         1.9460271051        5.8033126117        2.9117421658
O         0.0971820571       11.4253941976        7.5680687424
O        11.3474588647        2.0061788180        0.2865985070
O         5.8157257231       -0.0861809263        5.2758649542
O         5.5653392791        1.8281404514        6.7845085009
O        11.2697858421        0.1389738896        1.8948131042
O         1.9066323942        3.8348853257        9.2045379587
O        -0.0193966729       13.1545488382        4.4553360745
O         0.0224830835        3.8011443235        7.6773749497
O         1.8859205187       13.2362677266        2.8670301449
O         3.9664518102        3.8376549799        2.0688277642
O        13.1059498481       13.2704956027        6.7317712723
O        11.3720482740        5.6624344586        4.3857308782
O         5.6901151038       11.4709481185        9.2260332023
O        13.1779782971        3.8031991480        5.2199394296
O         3.6391449679       13.3094313930        0.5079962054
O         5.7391246623        5.9125588260        2.7391259207
O        11.3036911580       11.3380781181        7.6545319973
O        11.2512724081       13.2703118167        0.4099869599
O         5.4943227544        3.7197095755        5.1852227562
O         3.7885945888       11.3695242646        7.6802664986
O        13.2780689069        5.9248681792        2.8738423003
O         5.5171103557       13.1997421634        6.7815793745
O        11.5427941045        3.8318941780        1.9191784320
O        13.2353929975       11.4075932425        9.2093947192
O         3.8640340283        5.7141059243        4.4064406136
O         5.7624952404        5.6337691132        6.7341019993
O        11.1227079807       11.4594618389        2.0011087158
O        13.2086996898        3.9097877645        9.1360691509
O         3.7977841047       13.2148461235        4.3897392869
O        11.3580057384        5.7370064489        0.4112870978
O         5.7875647519       11.3033880634        5.2365946817
O         3.7451618615        3.7231217509        7.6488063658
O        13.2125435306       13.2148742770        2.7156205045
O        13.0527077067       11.4091472687        5.1535184584
O         3.7136825036        5.6749518426        0.4292093556
O         5.6956848260       13.1677214299        2.8683124464
O        11.2945233161        3.5631547658        7.5574356242
O         3.9630389712       11.4062748860        1.9655526136
O        13.2140650334        5.6414319628        6.8993343500
O        11.2879375896       13.3494900629        4.3223967463
O         5.6640710557        3.8115460544        9.1414748249
O         3.7860933740        7.6354829869        1.9261391969
O        13.3105690419        9.5853537849        6.7524483282
O         7.5729200714        5.5280017870        4.3205942798
O         9.4246489256       11.3236902339        9.2236475309
O        13.2641989700        7.5874320529        5.4206714943
O         3.8106471223        9.5219464340        0.3604392841
O         9.5546803254        5.5804364166        2.7897544862
O         7.5225045494       11.3471595297        7.5744797126
O        11.3451563833        9.4923237088        0.4088295403
O         5.7313290790        7.5683133956        5.1630900726
O         5.5482608543        9.4183701413        6.7579771162
O        11.2250835932        7.6055323628        2.0187968320
O         9.4350751684        3.9484976326        9.1477246490
O         7.5913970959       13.0448216741        4.4520888349
O         7.5040231798        3.6460335820        7.5500539909
O         9.4299546451       13.4678361340        2.8562975645
O         7.4432832945       -0.0379802397        2.0368184700
O         9.2143586344        1.8079224973        6.7272952408
O         0.0794704776        9.3698797430        4.4359869033
O         1.9267293496        7.5779117285        9.2017367417
O         9.3121705778       -0.0325307549        5.1947546704
O         7.6343303157        1.9047263986        0.4395318246
O         1.9642828751        9.6983089842        2.7723985375
O         0.0422039138        7.5686277999        7.6172406714
O         7.5238542028        3.7972905667        1.9486263303
O         9.5035727410       13.2085249147        6.7428708952
O        11.4418975929        9.2296303538        4.3775174119
O         5.6685996396        7.6972863424        9.1255323317
O         9.4809225858        3.6885215070        5.1832998864
O         7.5678670079       13.2196917519        0.4188897768
O         5.7404507594        9.4003019721        2.7124647036
O        11.3030841513        7.6442315636        7.5959668444
O         3.7905381380        7.3650005765        7.6010321988
O        13.3243803270        9.6157446029        2.8081585660
O        13.2651498439        7.6760919928        9.3255963754
O         3.8515453289        9.4257251014        4.2971210436
O         9.6092069905        5.5296095522        6.7543875758
O         7.6428823702       11.3272523343        1.9602457448
O         7.3437412267        5.6955476374        0.3708444918
O         9.5561581796       11.2281616881        5.1974173356
O         7.8596216550        7.5900388539        1.9241102350
O         9.4491620408        9.4166077822        6.8098815344
O         7.5596811284        9.3775399714        4.3256539526
O         9.4713285372        7.4395349614        9.2189918757
O         9.3553389898        7.4826014344        5.2465212818
O         7.5175214142        9.4672841164        0.3631239847
O         9.5712172349        9.5095722922        2.8711099035
O         7.5966495136        7.5409097467        7.5882676019
     192
 i =        2, E =     -5781.9318642630
Ti        -0.0592707411        0.1163166376        0.0324777499
Ti         1.8565140605        1.9283721950        4.8823594156
Ti         0.0402978190        2.0108654637        2.4896281026
Ti         1.8456791080       -0.0658634019        7.1914857479
Ti        -0.0569979752        3.8290862275       -0.0338724323
Ti         1.9525828910       13.2066236146        4.8398206189
Ti        11.3008328004        1.9582691652        2.4336139717
Ti         5.6006031006       -0.0750986911        7.2140109305
Ti         1.9052653004        3.8053647613        7.2470376084
Ti         0.0083722667       13.3336664654        2.4602771189
Ti         5.6813639582        1.8517005741        4.8125670789
Ti        11.2920614551        0.0931998937       -0.0330091468
Ti         3.6601731489        0.0816058051        0.0342751603
Ti        13.1637515569        1.7920679202        4.7351767257
Ti        13.2651831223       -0.0404052703        7.1775420217
Ti         3.7640176064        1.8323838333        2.5078302597
Ti         1.9635331714        5.6575792745        4.8327697686
Ti         0.0002621321       11.5608219071       -0.0044737986
Ti        -0.0154435071        5.7102618529        2.4791381190
Ti         1.8793863905       11.3446140745        7.3311198599
Ti         0.0345404050        7.4916781178        0.0308910992
Ti         2.0236360072        9.5195819082        4.8644706729
Ti         7.5007130371        1.9551843706        2.3327441191
Ti         9.4828424300       -0.1118434832        7.2266991556
Ti         1.9385039956        7.5718818730        7.1752750457
Ti         0.1046461898        9.5522550162        2.4895193856
Ti         9.3507315269        1.8214346948        4.7912441970
Ti         7.4669406384       -0.0337728208       -0.0647554592
Ti         3.7395717327        3.7712068719        0.0031901131
Ti        13.2319640079       13.1168427352        4.7783114242
Ti        11.3601790429        5.7142938943        2.3857921626
Ti         5.6737691427       11.3190622612        7.1740397879
Ti        13.1642322638        3.7050202530        7.2310706549
Ti         3.7819767436       13.1933572508        2.4441480967
Ti         5.6985665295        5.6984792479        4.8350670213
Ti        11.2239821597       11.3869207515        0.0818466052
Ti        11.3051122316       13.3132121569        2.3468987982
Ti         5.6660114455        3.7258262908        7.1414413882
Ti         3.8668791296       11.3959861469        0.0215462099
Ti        13.2759037971        5.5925407135        4.8721359599
Ti         5.7718851651       13.2040104179        4.8060444537
Ti        11.2620250174        3.7980000949       -0.0441249568
Ti        13.1237963984       11.3532767997        7.2621084632
Ti         3.8029586318        5.6315481152        2.3934463113
Ti         3.7907069296        7.5814785221        0.0318818008
Ti        13.2850045573        9.4300579908        4.8408085378
Ti         7.4935210945        5.6843697606        2.4118925623
Ti         9.4106424615       11.1775890481        7.1698197378
Ti        13.2972557541        7.5276520060        7.1965842235
Ti         3.8584446808        9.4343459904        2.3518318074
Ti         9.5193582215        5.5730298637        4.7259770757
Ti         7.5653293497       11.3537705688        0.0428905248
Ti        11.3951557182        9.4536610297        2.4344364135
Ti         5.6642330216        7.5821129053        7.2242802231
Ti         5.7699674530        9.4202893767        4.7580763946
Ti        11.3300087669        7.5858338676       -0.0002898453
Ti         9.4363967681        3.6638130027        7.1746499020
Ti         7.5408261757       13.3249050818        2.3893886870
Ti         7.4745844199        3.7978799134       -0.0582188586
Ti         9.4974264426       13.2364260823        4.7879946815
Ti         7.6105409089        7.5331275671       -0.0629161253
Ti         9.5275946700        9.4211164291        4.7780058094
Ti         7.6132608901        9.4155065527        2.3303616577
Ti         9.5179900588        7.3892468281        7.1528305852
O         0.0562786846        0.0644421904        2.0278639292
O         1.7589898015        1.9170725860        6.7665085243
O        -0.0221542978        1.9778265003        4.3928329617
O         1.7970095689        0.1245824869        9.2103236628
O         1.8152261574       -0.0107759853        5.2666555096
O        -0.1167452111        2.0076117789        0.4521924394
O         1.8680831806        2.0907447644        2.8108363904
O        -0.0522623865       -0.0542980119        7.6405373368
O        -0.0612111046        3.8911846587        2.0704781372
O         1.9866759491       13.2443346839        6.8346164299
O        11.2942259233        1.8436964591        4.3420927129
O         5.6040038100        0.0180487171        9.2493222986
O         2.0644582925        3.7794322589        5.1935915041
O         0.0477045460       13.3727568641        0.4333234262
O         5.6341246509        1.9202649848        2.8209010551
O        11.3096946871        0.0761815070        7.5713688447
O         3.7019431154        0.0842905319        7.6678929302
O        13.1901880423        1.8970875852        2.8376961123
O        13.1859598624       -0.0283595674        9.1879389438
O         3.7215709535        1.6787113548        4.3976803483
O         1.8713077629        5.6372339634        6.7703212699
O         0.0236032491       11.4272205994        1.9150382264
O         0.0373558739        5.7090322859        0.4594421994
O         1.8935835586       11.3352132374        5.2414927826
O         0.1260371525        7.6975382917        1.9395209499
O         2.0537446201        9.4673742175        6.7938442717
O         7.4973872222        1.9139933888        4.3804257590
O         9.4182355612        0.0150333733        9.1728697691
O         1.8945881231        7.5664080126        5.2685998355
O         0.0845130831        9.5419059058        0.2701380403
O         9.3822465340        1.9820446979        2.8200718145
O         7.4779364974       -0.1318665082        7.6713508856
O         3.7348017037        0.0633690732        2.0323657501
O        13.2722944889        1.8662899958        6.7894069039
O         0.0123308795        5.5949121550        4.4640006759
O         1.8912867185       11.3519254529        9.2473240709
O        13.2297872824       -0.0048802055        5.1708939765
O         3.7140677478        1.9343226089        0.4430590807
O         1.9422884763        5.7505452016        2.8684400676
O         0.0469931249       11.4324725486        7.5969319456
O        11.3228358980        1.9829711392        0.3127409717
O         5.7876119737       -0.0569633318        5.2549725753
O         5.6318963754        1.8252747659        6.7805051959
O        11.2986555242        0.1287760666        1.9188596705
O         1.8854316413        3.8175905425        9.2358069197
O        -0.0107294368       13.2069624568        4.4132371360
O         0.0016063873        3.7822005786        7.6765698996
O         1.8814745020       13.2382308469        2.8634990725
O         3.9005471992        3.8480746818        2.0579912948
O        13.1565358791       13.2351207674        6.7827505504
O        11.3676895429        5.6660888046        4.4043846616
O         5.6972323851       11.4561077249        9.2263750124
O        13.1570221737        3.8044225753        5.2213518550
O         3.6493582217       13.2944522153        0.4754470090
O         5.7102781697        5.8734235037        2.7648730155
O        11.3196297928       11.3346221514        7.6148310442
O        11.2743040811       13.2733452581        0.3877135840
O         5.5859324005        3.7219328358        5.1868373210
O         3.7911762492       11.3759482814        7.6652417432
O        13.2873625733        5.9028024354        2.8670705552
O         5.5210420725       13.2042210231        6.8089965929
O        11.4775807881        3.8067675331        1.9616003725
O        13.2553423692       11.4305792900        9.1992863119
O         3.8552975162        5.7218316116        4.3995723286
O         5.7522293367        5.6324184365        6.7355729388
O        11.2155941316       11.4103472183        2.0072173243
O        13.2066818918        3.8905714041        9.1481663309
O         3.7833973822       13.2317711156        4.4158738548
O        11.4031338628        5.7426774793        0.4074774090
O         5.7409199401       11.2895810705        5.2476341896
O         3.7568181630        3.7239827376        7.6573182534
O        13.2312919315       13.2676934538        2.7757020459
O        13.0871429856       11.3469232572        5.1594516352
O         3.7413275993        5.6807597519        0.4237820609
O         5.6937267611       13.2323589766        2.8540006654
O        11.3026778009        3.5809587825        7.5787353945
O         3.9228429632       11.3996958577        1.9862169068
O        13.2215884934        5.6546812424        6.8370346142
O        11.3057214323       13.3093472713        4.3413063600
O         5.6584155029        3.7837698650        9.1596829436
O         3.7554221718        7.6106905944        1.9419992498
O        13.3104229517        9.5431166115        6.7823234610
O         7.5843658525        5.5195867111        4.3323378007
O         9.4332885737       11.3103568742        9.1740857144
O        13.2978943460        7.5753234541        5.3419026850
O         3.7971183850        9.5089104153        0.3792204742
O         9.5059425340        5.5786321861        2.7961739152
O         7.5189981703       11.3224181053        7.5644465422
O        11.3613590508        9.4841016163        0.4685881601
O         5.7455246279        7.5506172807        5.1789451582
O         5.5997592233        9.4040075949        6.7708497829
O        11.2996165991        7.6167264711        2.0014002331
O         9.4160243392        3.9296790305        9.1499959786
O         7.5734056848       13.0869829735        4.4079123516
O         7.5209019649        3.6936187998        7.5737437358
O         9.4261801197       13.3759598915        2.8225307683
O         7.4808939999        0.0031062804        2.0344483552
O         9.2814799874        1.8231832391        6.7605171709
O         0.0528539863        9.4358076080        4.4203147404
O         1.9068948409        7.6628632955        9.2133466482
O         9.3553399662       -0.0232731827        5.2039472374
O         7.5626453506        1.9137908590        0.4094884113
O         1.9360133136        9.6344490445        2.7668684634
O         0.0324373772        7.5853292021        7.6158831338
O         7.4795167708        3.8185701507        1.9471842682
O         9.4849146958       13.2159752786        6.7613636819
O        11.4122447816        9.2481243549        4.4027173229
O         5.6720879233        7.6504348719        9.1557627655
O         9.4561904945        3.7122828004        5.1946800483
O         7.5864492396       13.2532554950        0.4289413280
O         5.7304558081        9.4112703994        2.7510773839
O        11.3380745321        7.6258091744        7.6365039897
O         3.7830042249        7.3948027830        7.5975246821
O        13.2910774147        9.6018018599        2.8107607010
O        13.2661376533        7.6603379282        9.2297708122
O         3.8431757814        9.3936010026        4.3201428488
O         9.5409316456        5.5645264206        6.7647411281
O         7.6649690687       11.3299540338        1.9558689511
O         7.4143088712        5.6905663056        0.4025973850
O         9.5565537632       11.2540769906        5.2076824759
O         7.7916825882        7.5596973300        1.9436576679
O         9.4646283198        9.4099524149        6.8362858034
O         7.5812314319        9.3887429810        4.3438482473
O         9.4705688250        7.4976715147        9.1819622420
O         9.4021560008        7.4928531675        5.2315813464
O         7.5318386540        9.4542460391        0.3660578237
O         9.5275276289        9.5085765907        2.8648885865
O         7.5890491227        7.5158647797        7.5941426129
     192
 i =        3, E =     -5781.9691053105
Ti        -0.0484812768        0.1168045270        0.0175898676
Ti         1.8640479288        1.9209665175        4.8706591993
Ti         0.0362002768        2.0062773478        2.4714275724
Ti         1.8507404037       -0.0540198011        7.2008815654
Ti        -0.0664234009        3.8179133260       -0.0302825726
Ti         1.9497876997       13.2227921224        4.8286475426
Ti        11.3236861267        1.9447631355        2.4326111406
Ti         5.6056452798       -0.0520366720        7.2111167737
Ti         1.9011628148        3.7947972037        7.2471455342
Ti         0.0050733488       13.3341939639        2.4464474142
Ti         5.6868351845        1.8598738009        4.8134659066
Ti        11.2854262747        0.0820130233       -0.0275911198
Ti         3.6698436179        0.0799654150        0.0272436916
Ti        13.1816392529        1.8131837692        4.7661584165
Ti        13.2497526251       -0.0290007467        7.1967950798
Ti         3.7724660726        1.8409792387        2.4842821663
Ti         1.9586918452        5.6669689132        4.8266800169
Ti        -0.0128427120       11.5491921761       -0.0132905520
Ti        -0.0092308634        5.7004581187        2.4716635223
Ti         1.8652822265       11.3526356051        7.2980784263
Ti         0.0154722887        7.5003724589        0.0079679387
Ti         2.0036500656        9.5190349513        4.8474637190
Ti         7.5159478820        1.9469339728        2.3336339218
Ti         9.4707453594       -0.0931207767        7.2179009178
Ti         1.9261626223        7.5675074589        7.1771249183
Ti         0.0847035586        9.5306064543        2.4895316822
Ti         9.3659003056        1.8370798552        4.7875315815
Ti         7.4667311603       -0.0098142282       -0.0562669574
Ti         3.7450199033        3.7760734010        0.0122665828
Ti        13.2343752377       13.1409641326        4.7825683118
Ti        11.3628736917        5.7079896740        2.3924014340
Ti         5.6689633061       11.3188949589        7.1900258216
Ti        13.1765020691        3.7208116227        7.2189884503
Ti         3.7797580729       13.2176093405        2.4227832352
Ti         5.7000993787        5.6810826589        4.8402395596
Ti        11.2401765244       11.3879768136        0.0552329638
Ti        11.3233111547       13.2975703303        2.3670199679
Ti         5.6654930741        3.7322706751        7.1582671630
Ti         3.8455138055       11.3896550421        0.0194814400
Ti        13.2710034646        5.5964163136        4.8502436141
Ti         5.7479424608       13.2035896963        4.7974399211
Ti        11.2681712569        3.7964006610       -0.0208008520
Ti        13.1627647421       11.3303760878        7.2721578176
Ti         3.7942186712        5.6316493728        2.3913362806
Ti         3.7782048380        7.5937324393        0.0153928866
Ti        13.2817002113        9.4376189645        4.8395609718
Ti         7.4991370615        5.6905299652        2.4064845882
Ti         9.4176447323       11.2083679782        7.1641717643
Ti        13.2961247453        7.5234165980        7.1830958868
Ti         3.8388926919        9.4328271396        2.3767112840
Ti         9.5015910125        5.5848456025        4.7437000581
Ti         7.5712182091       11.3480423526        0.0262255046
Ti        11.4020475489        9.4552182695        2.4260428597
Ti         5.6718056132        7.5615916438        7.2352537917
Ti         5.7583573091        9.4148464231        4.7764327479
Ti        11.3515908810        7.5907173674       -0.0137337127
Ti         9.4330134864        3.6862334971        7.1835248900
Ti         7.5475662420       13.3305162850        2.3802542389
Ti         7.4822274473        3.8047752145       -0.0486020529
Ti         9.4894644251       13.2303173483        4.7894740454
Ti         7.6114107834        7.5356229637       -0.0613682040
Ti         9.5182121779        9.4295391817        4.7751950661
Ti         7.6083515337        9.4336280743        2.3499296129
Ti         9.5113974745        7.4300053826        7.1632118974
O         0.0455370300        0.0758371020        2.0002546925
O         1.8023664626        1.9142438441        6.7791046484
O         0.0055213284        1.9490243089        4.3959662873
O         1.8154594994        0.1238860112        9.2061194660
O         1.8079245010       -0.0135729506        5.2641609897
O        -0.1074933170        1.9924611863        0.4418527266
O         1.8709316187        2.0270893066        2.7991562118
O        -0.0387706546       -0.0615037459        7.6331991099
O        -0.0891644393        3.8764950187        2.0481467032
O         1.9626298990       13.2320814072        6.8345806271
O        11.2926147509        1.8520861429        4.3712008364
O         5.5909558874        0.0146847016        9.2358093334
O         2.0333883930        3.7848805673        5.2111203162
O         0.0385407316       13.3574899301        0.4233702921
O         5.6450396027        1.9531451148        2.8159152173
O        11.3065090511        0.0589414984        7.5774470024
O         3.7125133964        0.0393310356        7.6625727307
O        13.2038792175        1.8911346701        2.8477522863
O        13.1918640105        0.0340666594        9.1794042790
O         3.7483552257        1.7249128995        4.4039805753
O         1.8578892232        5.6502655292        6.7977058676
O        -0.0155255587       11.4080556613        1.9218246900