     192
 i =        1, E =     -5781.8392952831
Ti        -0.0039504739        0.0146661685       -0.0061332154
Ti        -0.0079869826       -0.0034485760       -0.0160655517
Ti        -0.0064157898        0.0016425322       -0.0150582811
Ti        -0.0066095340        0.0090850856        0.0133913993
Ti        -0.0052323422       -0.0063332060        0.0142646195
Ti         0.0034212563        0.0028279971        0.0028221746
Ti         0.0037561938        0.0031160165       -0.0261280700
Ti         0.0000432577        0.0068107134        0.0045301060
Ti        -0.0002656402       -0.0128088395       -0.0056327804
Ti        -0.0116888548       -0.0034158975        0.0004120915
Ti        -0.0145582345        0.0023367390        0.0002644764
Ti        -0.0047859610       -0.0072859837       -0.0008732397
Ti        -0.0003431762       -0.0052450511       -0.0052987949
Ti         0.0143885312        0.0050196894        0.0229842784
Ti        -0.0142343253        0.0083019603        0.0085443109
Ti         0.0030138016        0.0208062572       -0.0136826145
Ti        -0.0016497404        0.0066469366       -0.0183847443
Ti        -0.0015804465       -0.0002215248       -0.0099271056
Ti         0.0067109550        0.0038096506        0.0045725035
Ti         0.0101211888        0.0071809138       -0.0169968978
Ti        -0.0093213014        0.0069729872       -0.0099009963
Ti        -0.0032588482       -0.0107428739       -0.0314702538
Ti        -0.0018617888       -0.0122178826       -0.0074052088
Ti        -0.0037199437        0.0081098385        0.0005691150
Ti        -0.0012297877       -0.0058964310        0.0097180313
Ti         0.0000734348       -0.0063625196        0.0126221986
Ti        -0.0000312708        0.0013374719        0.0088715787
Ti         0.0143072812        0.0074508714        0.0280752353
Ti         0.0151649760        0.0004600777        0.0057716312
Ti        -0.0106007041        0.0201369032       -0.0079162078
Ti         0.0064043363       -0.0074697218        0.0014955646
Ti        -0.0018714524       -0.0034321373        0.0117418853
Ti         0.0047038582        0.0024726365       -0.0117385696
Ti         0.0054278391        0.0172801535        0.0009179135
Ti         0.0152582946       -0.0088390871       -0.0084506386
Ti         0.0008846227        0.0029473021       -0.0118104484
Ti         0.0008447350        0.0020847307       -0.0018404095
Ti        -0.0033848406        0.0007287403        0.0008365942
Ti        -0.0054031470       -0.0024352695       -0.0160431392
Ti        -0.0108240441        0.0098295454        0.0007691117
Ti        -0.0093515700       -0.0069675382       -0.0060217206
Ti         0.0038685467        0.0134984736        0.0103075208
Ti         0.0079075674        0.0023170773        0.0002266367
Ti         0.0044686128        0.0076918251        0.0058669889
Ti         0.0019591613        0.0101249258       -0.0177026814
Ti         0.0007005954        0.0074217000       -0.0026696824
Ti         0.0027169348        0.0063307101       -0.0023717905
Ti        -0.0076435109        0.0281505736        0.0048626918
Ti        -0.0070586938        0.0001349580        0.0201151577
Ti        -0.0118407770        0.0057133017        0.0005381587
Ti        -0.0032803981        0.0017818524        0.0102043684
Ti         0.0092342681       -0.0000144665       -0.0146643022
Ti         0.0104444508        0.0054242272       -0.0063285192
Ti         0.0059578644       -0.0083662024        0.0054803196
Ti        -0.0125053299        0.0053039895        0.0018045776
Ti         0.0026813522        0.0082957643       -0.0067044329
Ti        -0.0043380081       -0.0021917861       -0.0019705908
Ti         0.0097755462       -0.0073006427       -0.0029622858
Ti         0.0101890527       -0.0026661209        0.0035634729
Ti        -0.0073609625       -0.0083549132        0.0095554371
Ti         0.0015303240        0.0026316578       -0.0046350753
Ti         0.0001955873        0.0008149090        0.0062064530
Ti        -0.0013182010        0.0051816311        0.0043359055
Ti        -0.0111414206        0.0061950259        0.0061781486
O         0.0012974658        0.0016375223       -0.0078126252
O         0.0099497226       -0.0020299230        0.0158071891
O         0.0161613506       -0.0034404240        0.0038535823
O         0.0036740677       -0.0032435311       -0.0048083286
O         0.0009006242        0.0000996928       -0.0063520201
O         0.0055856596       -0.0018974178       -0.0051140098
O         0.0041197090       -0.0113720301       -0.0007937772
O         0.0163957284       -0.0009801509        0.0047382290
O        -0.0030451175       -0.0037767502       -0.0055168891
O        -0.0005931357       -0.0174110878        0.0022107819
O        -0.0129997715       -0.0004584958        0.0171601468
O        -0.0186920719        0.0045797149       -0.0032839861
O        -0.0050814271        0.0105228791        0.0058688051
O         0.0012969375       -0.0037042534        0.0015981815
O         0.0015616718        0.0060208294       -0.0030394231
O         0.0076105253        0.0008188593        0.0023522113
O         0.0006996853       -0.0036742570       -0.0050830748
O        -0.0010138870        0.0030102823       -0.0077633635
O         0.0081394434        0.0087197515       -0.0079054285
O         0.0060943157        0.0008685922        0.0173543442
O        -0.0042381586        0.0096016378        0.0177344831
O        -0.0019185382       -0.0086597572        0.0032419708
O        -0.0061993343       -0.0105484161       -0.0001797242
O        -0.0013999577        0.0149768963        0.0035985567
O        -0.0004058661       -0.0049492286        0.0007661488
O        -0.0094939551       -0.0018468226        0.0190805987
O         0.0175531862        0.0043358156        0.0052351208
O         0.0030258539       -0.0019009040       -0.0054261274
O         0.0085678826       -0.0003063928       -0.0059955719
O        -0.0031028897       -0.0041872536       -0.0015535269
O         0.0040928240       -0.0057971019       -0.0098983280
O        -0.0030473757        0.0026546322       -0.0227508680
O        -0.0006441154       -0.0122436042       -0.0007253788
O         0.0054379342        0.0034050259       -0.0038848921
O         0.0111692093       -0.0008801478       -0.0083454117
O        -0.0136196867        0.0003210801        0.0037189467
O         0.0059005020        0.0102257757        0.0056068939
O         0.0005365115       -0.0050876709        0.0061253092
O        -0.0073014348       -0.0059596944       -0.0083534389
O        -0.0250403012        0.0024199368        0.0102503002
O        -0.0029520609       -0.0151436137        0.0072902914
O        -0.0034022997        0.0144600883       -0.0042563611
O         0.0066903017       -0.0020122846        0.0009926270
O         0.0034596421       -0.0008963951        0.0055569788
O        -0.0135988876       -0.0011277242        0.0058079632
O         0.0070729641        0.0054265831       -0.0104962607
O        -0.0079576952       -0.0006433348       -0.0070666733
O         0.0041255395       -0.0008000651        0.0009699776
O        -0.0077827736       -0.0078926945       -0.0061937402
O         0.0052243429       -0.0183160268        0.0041693607
O         0.0041138367       -0.0004641906        0.0035016489
O         0.0015644575       -0.0007166325       -0.0040381681
O        -0.0033141258       -0.0135117337        0.0007298111
O         0.0009739027        0.0006005347       -0.0104621578
O        -0.0151651628       -0.0048626177        0.0042197731
O         0.0014040667       -0.0003684938       -0.0013996782
O         0.0028199871        0.0117897087       -0.0057062025
O         0.0094980100       -0.0031988806        0.0014833300
O         0.0116812455        0.0002752486        0.0005228184
O         0.0036301449       -0.0041662637        0.0011101618
O        -0.0016243514        0.0003829651        0.0069945876
O        -0.0084060622       -0.0065251258        0.0065801274
O         0.0080819168        0.0010758232       -0.0002962893
O        -0.0098783411        0.0000488876       -0.0016097361
O        -0.0023596819        0.0054464424        0.0043860866
O         0.0112020212       -0.0194643430        0.0076137679
O         0.0009997742       -0.0009563048        0.0053766039
O        -0.0062384623        0.0016029939        0.0105241706
O         0.0048705644       -0.0042306153       -0.0015935939
O        -0.0074550871       -0.0049995167       -0.0034053854
O         0.0076683798       -0.0002286703       -0.0015748507
O         0.0055129427        0.0061043683        0.0126664735
O         0.0015199733       -0.0328774324        0.0036090778
O         0.0029519266       -0.0003859804        0.0010561825
O        -0.0025957501        0.0076933552       -0.0022390350
O         0.0057265493        0.0023002838        0.0023381690
O        -0.0028538864       -0.0130672048        0.0103981276
O         0.0005160766        0.0042385293       -0.0061505021
O         0.0210637814       -0.0038005506        0.0055683182
O        -0.0122358587       -0.0021524087        0.0030716834
O        -0.0025203476       -0.0107671609        0.0089436548
O        -0.0003447766       -0.0083405041        0.0098291194
O         0.0022558977       -0.0007770189        0.0038558064
O        -0.0064339577       -0.0015374782       -0.0089929087
O         0.0017976941       -0.0048159653       -0.0328566011
O         0.0000499346       -0.0041162904        0.0028815914
O        -0.0184933661       -0.0007871445       -0.0011825528
O         0.0064787749       -0.0025075946        0.0024537251
O         0.0036494687       -0.0030244990        0.0117828548
O        -0.0006710756       -0.0013766086        0.0049691906
O         0.0036835034        0.0010145387       -0.0022039300
O         0.0083557327        0.0022738402       -0.0064852072
O        -0.0116643762       -0.0022317106       -0.0025683625
O         0.0029048406        0.0047250770       -0.0081021053
O         0.0069371225        0.0042109410        0.0057472325
O        -0.0096520134       -0.0087388422       -0.0102317223
O         0.0037316938        0.0191422850       -0.0038833957
O         0.0081868600        0.0034326029        0.0077616130
O        -0.0014669410        0.0085693654       -0.0102196232
O         0.0003601905        0.0096676276        0.0003224399
O         0.0048934047        0.0003210639       -0.0003483562
O        -0.0081479094       -0.0034317854       -0.0074041105
O        -0.0025648991       -0.0070798560        0.0024752608
O         0.0008539437        0.0015389399        0.0031458783
O        -0.0038897204        0.0095198036       -0.0018133507
O        -0.0026546036       -0.0062678568        0.0044669683
O        -0.0077557468        0.0026080523        0.0050833973
O        -0.0034187202       -0.0054737171        0.0080048152
O        -0.0024694682        0.0054074822        0.0010994821
O         0.0016759527        0.0129880844        0.0032343617
O         0.0047258234        0.0028800499        0.0051857174
O         0.0233113247       -0.0020280493        0.0110262913
O        -0.0020414906        0.0043870360       -0.0011552428
O        -0.0123666232       -0.0018981257       -0.0001887623
O         0.0065131410       -0.0035463816       -0.0114245720
O        -0.0031131592       -0.0023765013        0.0081454249
O        -0.0072292881        0.0096596905        0.0002985412
O         0.0025696571        0.0002922248        0.0059868600
O         0.0070345140       -0.0014056562        0.0019068863
O        -0.0019149519        0.0070327416        0.0016753664
O        -0.0063038448       -0.0107414297        0.0038584888
O         0.0010993062       -0.0239293618       -0.0017948295
O         0.0229465887        0.0020999795        0.0016473786
O        -0.0078129855        0.0053814505       -0.0076776708
O         0.0041192505       -0.0037918406       -0.0068849151
O         0.0022373282       -0.0106525743        0.0016169792
O        -0.0214065443        0.0015186007       -0.0060231819
O        -0.0024186607       -0.0044170288        0.0036691078
     192
 i =        2, E =     -5781.9318642630
Ti        -0.0022986259        0.0036909803        0.0025957082
Ti         0.0012167790       -0.0037591811       -0.0045349966
Ti        -0.0036702921       -0.0015744964       -0.0113986141
Ti         0.0010540411        0.0169021396        0.0045787281
Ti         0.0025180157       -0.0033299900        0.0030206073
Ti        -0.0037541402        0.0061379123       -0.0048568384
Ti        -0.0005912428        0.0042078536       -0.0063098641
Ti         0.0002987625        0.0072079021        0.0062408988
Ti        -0.0050872798       -0.0085542425       -0.0025896438
Ti        -0.0010012266       -0.0016391952       -0.0035054996
Ti        -0.0074621968       -0.0000081245        0.0023397117
Ti         0.0019328804        0.0011080552       -0.0037076595
Ti         0.0046476549       -0.0040000670       -0.0038345696
Ti         0.0029755975        0.0069322390        0.0151257944
Ti        -0.0103480068        0.0079576035        0.0022881737
Ti        -0.0023651832        0.0142736187       -0.0103694336
Ti         0.0003809458        0.0036384637       -0.0106829382
Ti        -0.0018162739        0.0054400588       -0.0054618093
Ti         0.0092701644        0.0048273806        0.0030943117
Ti         0.0010194074       -0.0032169490       -0.0112819737
Ti        -0.0035277404        0.0075369570       -0.0111708706
Ti        -0.0049922839       -0.0096309098       -0.0107381483
Ti         0.0041196561       -0.0014524115        0.0042555552
Ti        -0.0079196765        0.0087201585       -0.0012422898
Ti        -0.0059544647       -0.0022811000        0.0067045568
Ti        -0.0071542300       -0.0023689894        0.0039428406
Ti         0.0012424523        0.0059622607       -0.0019228095
Ti         0.0002053972        0.0093103750        0.0065988302
Ti         0.0061628172        0.0051990684        0.0063758187
Ti        -0.0011648549        0.0167845973       -0.0040103380
Ti         0.0015158313       -0.0003113309        0.0026678480
Ti        -0.0064768320       -0.0019686479        0.0060412128
Ti         0.0120381077       -0.0005740804       -0.0089763028
Ti        -0.0052457338        0.0112179122       -0.0053540457
Ti         0.0073652716       -0.0037962180       -0.0041005733
Ti         0.0148509615       -0.0067344329       -0.0097460146
Ti         0.0014203578        0.0005973214        0.0067526325
Ti        -0.0021276481        0.0002852294        0.0033466289
Ti        -0.0068323838        0.0061080171       -0.0072483828
Ti        -0.0036076359        0.0096407834       -0.0024449743
Ti        -0.0095582743        0.0007278445        0.0027176773
Ti         0.0049535431        0.0075381141        0.0056098392
Ti         0.0102690135       -0.0009729243        0.0033202629
Ti        -0.0033626172        0.0038018566        0.0028746122
Ti        -0.0015868929       -0.0041885373       -0.0114784538
Ti         0.0000412377       -0.0003086759       -0.0025081011
Ti         0.0112966584        0.0026176976       -0.0071750025
Ti         0.0014104036        0.0129767577       -0.0009903110
Ti        -0.0022137004        0.0066347139        0.0160424574
Ti        -0.0076314743        0.0041954442        0.0029783426
Ti        -0.0077939014        0.0044775478        0.0061848186
Ti        -0.0029872332       -0.0055085215       -0.0009978607
Ti         0.0075857240        0.0021604719       -0.0051637267
Ti         0.0057325763       -0.0083038734       -0.0017546530
Ti        -0.0033085129       -0.0033530592        0.0036556947
Ti         0.0067304772        0.0079276514       -0.0045576644
Ti        -0.0076389851        0.0005488250       -0.0031675293
Ti         0.0088035243       -0.0104560695       -0.0001004318
Ti         0.0036352286        0.0056390364        0.0043514637
Ti        -0.0039260317       -0.0036522638        0.0050284815
Ti        -0.0024180363       -0.0021947955        0.0009431930
Ti        -0.0038478866       -0.0095991365        0.0003443487
Ti         0.0048594511        0.0027283850        0.0053788076
Ti        -0.0090646840        0.0065768810        0.0008757879
O        -0.0012801543        0.0117475666       -0.0007890095
O         0.0014892936        0.0011148805        0.0056914014
O         0.0027343287       -0.0033640608        0.0067086094
O         0.0074868530        0.0013473067        0.0006425400
O        -0.0013878526       -0.0035320497       -0.0045744449
O         0.0001441049       -0.0071939271        0.0039477476
O         0.0021752761       -0.0049097435       -0.0000507478
O         0.0075969826       -0.0012515024       -0.0017615301
O        -0.0019354436       -0.0053578061       -0.0038873013
O        -0.0023327229       -0.0121583902       -0.0001785927
O        -0.0058733985       -0.0007155349        0.0091519229
O        -0.0041090489       -0.0026458566       -0.0018224025
O        -0.0016895840        0.0008473187        0.0060166461
O        -0.0006996390       -0.0083652208       -0.0025382034
O         0.0052979534        0.0000131135       -0.0004019485
O         0.0013013757       -0.0030065212        0.0018855722
O         0.0036113828       -0.0048424555        0.0003614035
O         0.0046522881       -0.0021124657       -0.0049672571
O        -0.0013460321        0.0049263308        0.0000895945
O         0.0075352118        0.0039379416        0.0078094587
O         0.0002012276        0.0053140441        0.0084675560
O        -0.0025000816       -0.0062743482        0.0062284775
O        -0.0013163107       -0.0041498131       -0.0001602213
O        -0.0000271421        0.0072807247        0.0012505539
O        -0.0040396993       -0.0024716182        0.0050277637
O        -0.0031956003        0.0023513201        0.0071750686
O         0.0066797487       -0.0024946354        0.0002266536
O         0.0020051176       -0.0009452965        0.0000519832
O         0.0008317239        0.0041612854       -0.0076400789
O        -0.0067610483       -0.0005434239       -0.0009246484
O         0.0031049101       -0.0018937183       -0.0076298865
O         0.0013404467        0.0008623220       -0.0055518422
O         0.0011065162       -0.0147138247       -0.0011402662
O         0.0003000436        0.0031134491       -0.0025759716
O         0.0088715013        0.0000182737       -0.0042376376
O        -0.0004711943       -0.0004976106        0.0017153346
O         0.0015724873       -0.0024199120        0.0024488611
O        -0.0004199040        0.0011674611        0.0050096710
O        -0.0091938549       -0.0005774979        0.0000637932
O        -0.0068702473        0.0002078462        0.0037107397
O        -0.0037055223       -0.0086563371        0.0076348549
O        -0.0036616686       -0.0029570439       -0.0036737252
O         0.0012462050        0.0054869935        0.0009376413
O        -0.0004018331       -0.0146453018        0.0021427590
O        -0.0042196857        0.0023536993       -0.0029987887
O        -0.0015924871       -0.0015299820        0.0003326839
O        -0.0023980820       -0.0009890901       -0.0061539591
O         0.0103655541       -0.0016527321        0.0018543871
O        -0.0039778227       -0.0152390449       -0.0048551098
O         0.0040757595       -0.0045702872       -0.0077416345
O         0.0028807262       -0.0006503372       -0.0053764672
O         0.0022568062       -0.0028614089       -0.0018312483
O         0.0015971523       -0.0158812665       -0.0007359432
O         0.0018664895       -0.0001190331       -0.0042004787
O        -0.0098332259       -0.0026642371        0.0033418285
O        -0.0047220826       -0.0003588358        0.0064905712
O         0.0026371933        0.0039276303        0.0041786459
O        -0.0015365430       -0.0000881022        0.0027260452
O         0.0051845630       -0.0047273118        0.0061970692
O        -0.0067563046       -0.0028407339       -0.0001015526
O         0.0025059437       -0.0027941727       -0.0035983839
O        -0.0047941618        0.0074578478       -0.0044065998
O        -0.0113591241       -0.0055914046        0.0043366004
O        -0.0079854345       -0.0037187207        0.0021363212
O        -0.0038195559        0.0032878037        0.0070186440
O         0.0059799300        0.0038710089       -0.0006205882
O        -0.0087565310        0.0018908256        0.0047269636
O         0.0025491670       -0.0003062686        0.0000472684
O        -0.0001650282       -0.0097601547        0.0032067783
O        -0.0038758849        0.0057454329       -0.0049635064
O         0.0044742331        0.0008199040       -0.0026826791
O        -0.0082248079       -0.0003999152        0.0037777928
O         0.0047507719       -0.0045762443        0.0015577210
O         0.0039458630        0.0033394602       -0.0032740019
O        -0.0061974233        0.0030744919       -0.0001155060
O         0.0009890033        0.0032456217        0.0048783832
O        -0.0029015412       -0.0089426780        0.0065423001
O        -0.0001866207       -0.0026469113        0.0028187161
O         0.0093777677       -0.0030678313        0.0003718741
O        -0.0078846985       -0.0017419412       -0.0014180581
O         0.0023317569       -0.0005050779        0.0030857867
O        -0.0016811924       -0.0104155295        0.0038265200
O        -0.0041205136        0.0025919574        0.0060323923
O        -0.0042827892        0.0003944845        0.0004982955
O         0.0013784849       -0.0003739573       -0.0193325796
O         0.0018852373       -0.0011124846        0.0033604164
O         0.0037578087        0.0029057278       -0.0028636007
O         0.0108364629        0.0000738889        0.0042129351
O        -0.0007580857        0.0053767092       -0.0053296743
O         0.0005797878        0.0009902352        0.0049355755
O        -0.0008623112        0.0046105466        0.0007860279
O         0.0004401625       -0.0113548954        0.0021417698
O         0.0020932959       -0.0031581045        0.0020078213
O         0.0072153475        0.0040085206       -0.0009072858
O         0.0027245711        0.0025387290        0.0015501283
O         0.0028654747       -0.0030062937       -0.0059442439
O        -0.0005709700        0.0108743066       -0.0053821686
O         0.0039484740       -0.0001068683        0.0017586133
O         0.0076857715        0.0013179164       -0.0075196162
O         0.0007540854        0.0005268029       -0.0023169745
O         0.0008010581       -0.0058226238       -0.0025958350
O        -0.0001016531       -0.0063171449       -0.0040060233
O         0.0090598128       -0.0029864418        0.0058278706
O         0.0018058903       -0.0031752427        0.0005064464
O        -0.0005762907       -0.0034359854       -0.0007947370
O        -0.0028421765       -0.0074831453       -0.0013618271
O        -0.0029147958        0.0054446043        0.0038247447
O        -0.0038637128       -0.0007061764        0.0023364820
O         0.0037208044       -0.0008287457        0.0035299415
O        -0.0001881095       -0.0008076200       -0.0015313634
O         0.0002512989        0.0013069981       -0.0013709180
O         0.0137293927       -0.0045111504       -0.0036555887
O        -0.0001773604        0.0030218758        0.0043353373
O        -0.0034962319       -0.0023009437        0.0012453883
O         0.0033064036        0.0000367700       -0.0001611285
O        -0.0062412463        0.0040903545        0.0066138403
O        -0.0010001359        0.0064187148        0.0017616970
O        -0.0041497686        0.0035621977       -0.0021810203
O         0.0029279175        0.0007277167       -0.0070979245
O        -0.0037942572        0.0102259137        0.0007451775
O        -0.0039387493        0.0029109271        0.0006709093
O        -0.0003206563       -0.0089941210       -0.0063961600
O         0.0103564372        0.0038339717        0.0013976370
O        -0.0012251419        0.0018531381        0.0014971937
O         0.0036399392        0.0001302255       -0.0033888487
O         0.0001355557       -0.0006062245        0.0011636951
O        -0.0081149745        0.0001678235       -0.0028218351
O         0.0000942455       -0.0003155488        0.0032839872
     192
 i =        3, E =     -5781.9691053105
Ti        -0.0022899685        0.0010420331        0.0024749861
Ti         0.0036070791       -0.0015690195       -0.0023439309
Ti        -0.0031674017       -0.0042634458       -0.0065137471
Ti         0.0004061265        0.0116143812        0.0008668327
Ti         0.0035866083        0.0013891587        0.0000102366
Ti        -0.0050590058        0.0039683277       -0.0037874069
Ti        -0.0033368644        0.0007421875       -0.0022587559
Ti         0.0001654923        0.0009183083        0.0035277413
Ti        -0.0042268870       -0.0029465407       -0.0014572769
Ti         0.0015334438       -0.0037306090       -0.0023691024
Ti        -0.0065342109       -0.0019268046       -0.0002169655
Ti         0.0018796875        0.0004539272       -0.0005670886
Ti         0.0057521800       -0.0057621494       -0.0035624650
Ti         0.0008101507        0.0064324720        0.0084721363
Ti        -0.0044605067        0.0013627370       -0.0017569629
Ti        -0.0014569236        0.0114744236       -0.0043423775
Ti        -0.0003079227        0.0016518501       -0.0043389143
Ti         0.0012201111        0.0054012219        0.0008923147
Ti         0.0084451382        0.0072672471       -0.0011589881
Ti         0.0025632478       -0.0050434809       -0.0057146584
Ti         0.0018348567       -0.0000333401       -0.0065662222
Ti        -0.0044078571       -0.0074525210       -0.0029933012
Ti         0.0044296433        0.0023990644        0.0053307736
Ti        -0.0083432266        0.0068736471       -0.0022889278
Ti        -0.0042203894       -0.0010282691        0.0048425013
Ti        -0.0077051036        0.0001157161       -0.0004443043
Ti         0.0045355047        0.0032735538       -0.0011467506
Ti        -0.0011999954        0.0045539625        0.0007693071
Ti         0.0020369484        0.0069762994        0.0030132242
Ti         0.0026333483        0.0084619498        0.0045205267
Ti        -0.0011983440        0.0025986427        0.0027193503
Ti        -0.0051652401       -0.0001198735        0.0027756247
Ti         0.0080975524        0.0007102740       -0.0041281172
Ti        -0.0046077034        0.0035598985       -0.0028237816
Ti         0.0034753414       -0.0017423773       -0.0064087281
Ti         0.0145496795       -0.0059045086       -0.0059043780
Ti        -0.0001524741        0.0000328757        0.0027631546
Ti        -0.0034037129       -0.0001034121        0.0049577354
Ti        -0.0055469700        0.0040882951       -0.0038888425
Ti        -0.0023520903        0.0104448343       -0.0021031865
Ti        -0.0080180326        0.0020954063        0.0054261897
Ti         0.0034957755        0.0065113354        0.0005368505
Ti         0.0055220444        0.0018608077       -0.0048908643
Ti        -0.0011798852        0.0054242312        0.0015013317
Ti         0.0005121119       -0.0040782118       -0.0059465147
Ti        -0.0044036516       -0.0017927919       -0.0018825951
Ti         0.0081036834        0.0024438578       -0.0046349806
Ti         0.0029106881        0.0077721808       -0.0008575858
Ti        -0.0014936257        0.0073118488        0.0062573206
Ti        -0.0024612816        0.0030096680       -0.0005589799
Ti        -0.0039226990        0.0067082163        0.0037669581
Ti        -0.0053900183       -0.0048622634        0.0020573732
Ti         0.0024510484        0.0012005613       -0.0021638363
Ti         0.0019391540       -0.0034803357       -0.0012395727
Ti        -0.0003055549       -0.0028809702        0.0030685945
Ti         0.0025257321        0.0045131430       -0.0011702698
Ti        -0.0023949349        0.0011466267       -0.0015395507
Ti         0.0061654689       -0.0118142993        0.0001578587
Ti         0.0021997517        0.0050178499        0.0040833701
Ti        -0.0041734483       -0.0017432269        0.0025658573
Ti        -0.0036073237        0.0013001547        0.0041473086
Ti        -0.0022339751       -0.0096389647        0.0012101607
Ti         0.0036924536        0.0009245913        0.0021359787
Ti        -0.0045921273        0.0050228424       -0.0009152637
O        -0.0008058156        0.0029345855        0.0025216377
O         0.0029474170       -0.0026717722        0.0043923855
O        -0.0045163789        0.0002146060        0.0038704377
O         0.0018709808        0.0020210906        0.0014029267
O         0.0020909921        0.0002161943       -0.0028274229
O         0.0011741239       -0.0037085827        0.0027612595
O         0.0029274116       -0.0018309608        0.0035276656
O         0.0047833294        0.0006074098       -0.0006514799
O         0.0029661504       -0.0056275192       -0.0012183012
O        -0.0027981493       -0.0041089386       -0.0009981580
O         0.0016749383        0.0001669798        0.0029815589
O         0.0030218777       -0.0010175713       -0.0009631711
O        -0.0039921539       -0.0012895411        0.0027482012
O        -0.0019885994       -0.0024493528       -0.0028779347
O         0.0035235429       -0.0047346216        0.0009033829
O         0.0034511369       -0.0010994264        0.0014672634
O         0.0006777007        0.0014418131       -0.0006875131
O         0.0037221674       -0.0008629862       -0.0024044702
O        -0.0029913828        0.0010908186        0.0009366484
O         0.0043140639        0.0037039859        0.0029075439
O         0.0013524395        0.0011209494        0.0033582789
O         0.0036815813       -0.0021532845        0.0049826491