     192
 i =        1, E =     -5766.4915479747
Ti        -0.0006315461       -0.0006313004        0.0000150010
Ti         1.8923951056        1.8923917131        4.8075241967
Ti        -0.0006594134        1.8923793558        2.4026839508
Ti         1.8923794556       -0.0005863509        7.2123784922
Ti        -0.0005925068        3.7810509389        0.0015759018
Ti         1.8924152105       13.2394262218        4.8064390394
Ti        11.3464708861        1.8923775929        2.4037522829
Ti         5.6737996204       -0.0005697444        7.2131469509
Ti         1.8923324357        3.7811458166        7.2107897734
Ti        -0.0006510211       13.2394672635        2.4037705961
Ti         5.6738166566        1.8923431745        4.8067051207
Ti        11.3464311672       -0.0006292534       -0.0010756133
Ti         3.7810716307       -0.0006120657       -0.0015619477
Ti        13.2394282197        1.8923746982        4.8086035828
Ti        13.2394703587       -0.0006754291        7.2112522911
Ti         3.7811062440        1.8923491500        2.4041825702
Ti         1.8924005328        5.6737868399        4.8083001548
Ti        -0.0006877787       11.3464742473        0.0010569554
Ti        -0.0006092755        5.6738628367        2.4018971797
Ti         1.8923687209       11.3464191662        7.2113351681
Ti        -0.0006387138        7.5651093946        0.0018511446
Ti         1.8924015733        9.4578349664        4.8079297738
Ti         7.5651342438        1.8923738179        2.4045350421
Ti         9.4578235603       -0.0005562033        7.2127937624
Ti         1.8923474970        7.5650789845        7.2104629945
Ti        -0.0005820825        9.4577733239        2.4022181026
Ti         9.4577835255        1.8924020705        4.8070958881
Ti         7.5651126077       -0.0006003696       -0.0018674897
Ti         3.7811403392        3.7811426400        0.0000070650
Ti        13.2394249775       13.2394312959        4.8075316682
Ti        11.3465087596        5.6738189978        2.4029582018
Ti         5.6738165715       11.3464893491        7.2120987592
Ti        13.2394240589        3.7810869328        7.2097122502
Ti         3.7810521468       13.2394522193        2.4052616803
Ti         5.6737901506        5.6738535173        4.8074899889
Ti        11.3464515468       11.3464784900       -0.0000379873
Ti        11.3464633173       13.2394274223        2.4048096673
Ti         5.6738606470        3.7811096849        7.2115968041
Ti         3.7811469154       11.3464291778       -0.0004561909
Ti        13.2393884802        5.6738376518        4.8094023240
Ti         5.6738200494       13.2393810521        4.8056351562
Ti        11.3464144568        3.7811407202        0.0004799911
Ti        13.2394880797       11.3464720793        7.2102011001
Ti         3.7811370691        5.6737755840        2.4034326318
Ti         3.7811276619        7.5651669900        0.0003629391
Ti        13.2394217472        9.4578294367        4.8090775958
Ti         7.5651197952        5.6738267651        2.4037508979
Ti         9.4577692062       11.3464524607        7.2117391834
Ti        13.2394106764        7.5651057664        7.2094015092
Ti         3.7811783862        9.4577972923        2.4038060595
Ti         9.4577899107        5.6737527100        4.8078766128
Ti         7.5651349253       11.3464982334       -0.0008020232
Ti        11.3464798540        9.4578041725        2.4032884954
Ti         5.6738264008        7.5650956804        7.2112675850
Ti         5.6739125820        9.4577894240        4.8071061730
Ti        11.3465038980        7.5650656076        0.0007957664
Ti         9.4577424253        3.7811626934        7.2112253248
Ti         7.5651316584       13.2393475710        2.4055932828
Ti         7.5651690515        3.7811157087       -0.0003445754
Ti         9.4578286172       13.2393677301        4.8060174468
Ti         7.5651410581        7.5651220117        0.0000026622
Ti         9.4576584274        9.4578622932        4.8075009862
Ti         7.5650540469        9.4578132859        2.4040940069
Ti         9.4577695106        7.5650543739        7.2108954013
O         0.0012364497        0.0023085570        1.9850953228
O         1.8828118655        1.8898117766        6.7905885174
O         0.0022778459        1.8825487481        4.3879107882
O         1.8897038603        0.0011863998        9.1952025103
O         1.8824957510        0.0022827985        5.2270992587
O         0.0011491864        1.8896726460        0.4198576841
O         1.8897223138        1.8827660346        2.8244438953
O         0.0023233460        0.0012049231        7.6299448443
O         0.0012563505        3.7815828938        1.9850082889
O         1.8825762202       13.2364843078        6.7917032585
O        11.3490738396        1.8826831737        4.3868264848
O         5.6727492302        0.0012112897        9.1964997541
O         1.8828795658        3.7815635188        5.2271180713
O         0.0012489648       13.2364916122        0.4186908313
O         5.6727971715        1.8830147945        2.8230126702
O        11.3491437427        0.0011828461        7.6310597619
O         3.7815296405        0.0011234539        7.6300809844
O        13.2364668804        1.8825894656        2.8233656497
O        13.2364473525        0.0011860645        9.1963523496
O         3.7815922946        1.8829877965        4.3878786667
O         1.8831642032        5.6727666292        6.7919544011
O         0.0011630878       11.3491216781        1.9839612886
O         0.0012132520        5.6727399832        0.4185466530
O         1.8827038241       11.3490956627        5.2282459679
O         0.0012109754        7.5662122418        1.9851643266
O         1.8829933386        9.4572609750        6.7916369659
O         7.5661979760        1.8830460901        4.3882053231
O         9.4573311605        0.0012243217        9.1962140967
O         1.8829863879        7.5662107011        5.2267125942
O         0.0013080328        9.4573391139        0.4188224855
O         9.4573376075        1.8829553244        2.8233847182
O         7.5662159216        0.0011406529        7.6297591560
O         3.7730318644        0.0022878928        1.9837601440
O        13.2371209430        1.8896744658        6.7914732226
O         0.0022579413        5.6697142019        4.3873631571
O         1.8897228659       11.3559346339        9.1944586253
O        13.2371966180        0.0022662200        5.2261573842
O         3.7730247049        1.8898318650        0.4209082292
O         1.8898289900        5.6696451387        2.8248955432
O         0.0023074054       11.3560715398        7.6308961394
O        11.3559984431        1.8897622390        0.4206279093
O         5.6696983970        0.0022212272        5.2276759066
O         5.6696342786        1.8898316348        6.7901264049
O        11.3560411844        0.0022715258        1.9841837372
O         1.8898253560        3.7730830014        9.1940536427
O         0.0023052925       13.2371984394        4.3888800622
O         0.0022461055        3.7729144754        7.6312661769
O         1.8896629977       13.2370854288        2.8235814553
O         3.7731130313        3.7815595726        1.9839791752
O        13.2370473553       13.2364731070        6.7925393200
O        11.3490086004        5.6697449164        4.3862901173
O         5.6728096283       11.3556085392        9.1957308590
O        13.2372416092        3.7815658835        5.2262918616
O         3.7729164087       13.2364640110        0.4198856156
O         5.6727801920        5.6697271683        2.8232139328
O        11.3491022643       11.3559250798        7.6319009564
O        11.3561113357       13.2364927542        0.4195731158
O         5.6697347412        3.7816073129        5.2273873393
O         3.7815761580       11.3556562570        7.6308746155
O        13.2365211862        5.6696268822        2.8239884011
O         5.6696783475       13.2365436659        6.7911349068
O        11.3555882600        3.7815834680        1.9841846641
O        13.2364536599       11.3560110787        9.1954232891
O         3.7816173765        5.6696611523        4.3875591043
O         5.6695970769        5.6727658632        6.7918064320
O        11.3558618339       11.3490731839        1.9830814269
O        13.2364796116        3.7729540843        9.1951304719
O         3.7815672430       13.2372582324        4.3886763768
O        11.3556127125        5.6727537674        0.4193517836
O         5.6695670816       11.3490235114        5.2287664946
O         3.7816223857        3.7730494513        7.6310023643
O        13.2364757260       13.2371361590        2.8224794169
O        13.2372066034       11.3491393700        5.2273497458
O         3.7731306225        5.6728233511        0.4193448546
O         5.6727372098       13.2372045474        2.8222639505
O        11.3490128115        3.7729378134        7.6322241888
O         3.7729975282       11.3490486378        1.9827939235
O        13.2371407340        5.6727507545        6.7926952777
O        11.3491298789       13.2372583327        4.3876494125
O         5.6728285035        3.7731478082        9.1956999298
O         3.7730421140        7.5661816536        1.9844106077
O        13.2371121178        9.4573328224        6.7924459966
O         7.5661729819        5.6697121867        4.3880247865
O         9.4573338736       11.3556034744        9.1954008322
O        13.2371983936        7.5662459823        5.2260672330
O         3.7731169040        9.4572960874        0.4198256487
O         9.4573027603        5.6696414355        2.8237157688
O         7.5661716290       11.3555841121        7.6306313530
O        11.3556800864        9.4573077740        0.4195052656
O         5.6695912371        7.5662065450        5.2270582461
O         5.6697028397        9.4572722214        6.7913061608
O        11.3555078264        7.5662203710        1.9845232576
O         9.4572807499        3.7731316289        9.1951318973
O         7.5662258731       13.2372747409        4.3889660773
O         7.5661831665        3.7731025114        7.6307145082
O         9.4573698060       13.2372427475        2.8226108086
O         7.5696224529        0.0022262717        1.9836723879
O         9.4659866938        1.8898692744        6.7903175415
O         0.0022855496        9.4659221305        4.3875699826
O         1.8898116443        7.5695899977        9.1939189508
O         9.4660243776        0.0022584046        5.2273841477
O         7.5696005175        1.8898105832        0.4211696326
O         1.8898462694        9.4660300773        2.8246604817
O         0.0022496655        7.5697092030        7.6314387976
O         7.5696618989        3.7816221848        1.9838451813
O         9.4660700055       13.2365102576        6.7914023929
O        11.3489503290        9.4658625645        4.3866659342
O         5.6728054700        7.5696059888        9.1955721552
O         9.4658096968        3.7815906883        5.2273447930
O         7.5696588082       13.2365116296        0.4201465786
O         5.6727830408        9.4657622357        2.8231713716
O        11.3489969643        7.5697042366        7.6323876899
O         3.7816145052        7.5697350055        7.6311622786
O        13.2365312493        9.4660846079        2.8237054783
O        13.2364926408        7.5696900294        9.1948044528
O         3.7816893722        9.4658058499        4.3878066192
O         9.4658550746        5.6727626957        6.7918280578
O         7.5696645761       11.3490142007        1.9824735749
O         7.5695836761        5.6727967157        0.4194990416
O         9.4660140547       11.3490470434        5.2285875146
O         7.5697252304        7.5661936699        1.9842636211
O         9.4658648897        9.4572503552        6.7915307317
O         7.5661645336        9.4656398801        4.3879845471
O         9.4573137892        7.5696929980        9.1951399082
O         9.4659806412        7.5661841099        5.2267716960
O         7.5696210780        9.4573058633        0.4199644523
O         9.4572426748        9.4658925580        2.8234625795
O         7.5661899535        7.5697420418        7.6307596859
     192
 i =        2, E =     -5766.4949976774
Ti         0.0011771845        0.0011699988        0.0000418205
Ti         1.8875913170        1.8876143682        4.8075074978
Ti         0.0011354353        1.8874884735        2.4016255307
Ti         1.8874885719        0.0011311433        7.2134926012
Ti         0.0011244120        3.7766094906        0.0034380308
Ti         1.8875122037       13.2373396277        4.8053431716
Ti        11.3511124118        1.8875750661        2.4036919461
Ti         5.6716717960        0.0010239952        7.2164653506
Ti         1.8876589289        3.7766275590        7.2100144786
Ti         0.0011803717       13.2373444175        2.4038438153
Ti         5.6716811632        1.8876078354        4.8044633378
Ti        11.3511866839        0.0011162683       -0.0021049880
Ti         3.7766088123        0.0011105203       -0.0034509469
Ti        13.2373490229        1.8875057524        4.8097337479
Ti        13.2373129854        0.0011351955        7.2112215878
Ti         3.7766487329        1.8876601031        2.4049364462
Ti         1.8876281456        5.6716688863        4.8104791472
Ti         0.0011399807       11.3511783922        0.0021177017
Ti         0.0010443900        5.6716829610        2.3985749572
Ti         1.8875514747       11.3510915757        7.2114365558
Ti         0.0010525465        7.5675220094        0.0051307467
Ti         1.8876574232        9.4623295828        4.8086563775
Ti         7.5675037264        1.8876099510        2.4067279628
Ti         9.4623423973        0.0010973912        7.2145647863
Ti         1.8876081863        7.5675075992        7.2082798826
Ti         0.0011047877        9.4623238104        2.4004718417
Ti         9.4623294658        1.8876964553        4.8063819059
Ti         7.5675158970        0.0010394772       -0.0051602783
Ti         3.7766551987        3.7766466262       -0.0000115920
Ti        13.2373147882       13.2373453467        4.8075289144
Ti        11.3510933156        5.6716861373        2.4006830527
Ti         5.6716606928       11.3510955337        7.2144151435
Ti        13.2374101983        3.7766006269        7.2078459099
Ti         3.7766044872       13.2373982120        2.4071508730
Ti         5.6716222934        5.6716538039        4.8074845716
Ti        11.3511320429       11.3510956048       -0.0000595260
Ti        11.3511668747       13.2373747740        2.4058777668
Ti         5.6717141619        3.7765144029        7.2128811733
Ti         3.7766390742       11.3510177608       -0.0012811788
Ti        13.2374564783        5.6716659805        4.8127634976
Ti         5.6716445106       13.2374899419        4.8022723546
Ti        11.3510027953        3.7766363168        0.0013492597
Ti        13.2373617826       11.3511864036        7.2091415206
Ti         3.7765407575        5.6716841053        2.4021180261
Ti         3.7765393619        7.5675187157        0.0016489560
Ti        13.2374167789        9.4623371346        4.8108745366
Ti         7.5675215377        5.6716523197        2.4037115479
Ti         9.4623354459       11.3510083930        7.2125249284
Ti        13.2374420507        7.5675446835        7.2060696392
Ti         3.7766752642        9.4622998685        2.4039022667
Ti         9.4624388571        5.6716666698        4.8092239606
Ti         7.5675062417       11.3511001197       -0.0030774546
Ti        11.3509989620        9.4623345746        2.4025069173
Ti         5.6716452093        7.5675421570        7.2113178253
Ti         5.6717129830        9.4623804966        4.8057593777
Ti        11.3510791360        7.5675166774        0.0030397638
Ti         9.4622897842        3.7766418989        7.2111237573
Ti         7.5675278948       13.2374674331        2.4089251789
Ti         7.5675017291        3.7765416711       -0.0016029811
Ti         9.4623683669       13.2373846601        4.8042249566
Ti         7.5675483487        7.5675412108       -0.0000033545
Ti         9.4622923789        9.4623033459        4.8074840775
Ti         7.5674853714        9.4624056085        2.4054043274
Ti         9.4624394420        7.5675101854        7.2095255517
O         0.0003212747        0.0000290095        1.9754489069
O         1.8874761416        1.8885511724        6.7791925132
O         0.0000598502        1.8876903493        4.3782185080
O         1.8885349948        0.0004075028        9.1839492130
O         1.8877341407        0.0000967883        5.2368323322
O         0.0003671925        1.8885283397        0.4311453201
O         1.8885613792        1.8874540093        2.8358141085
O         0.0000242600        0.0003405718        7.6396230697
O         0.0002617449        3.7768500336        1.9769308981
O         1.8877170203       13.2384108841        6.7819457016
O        11.3501307667        1.8875619114        4.3753492357
O         5.6711781972        0.0003161505        9.1895098698
O         1.8870878752        3.7769414084        5.2352932219
O         0.0002778056       13.2384850259        0.4284366749
O         5.6712122140        1.8870104550        2.8300721783
O        11.3501129239        0.0003478472        7.6424267479
O         3.7768355414        0.0003417443        7.6381228803
O        13.2384173570        1.8876966252        2.8331380024
O        13.2384817942        0.0003245851        9.1866231169
O         3.7769382933        1.8870684231        4.3796905709
O         1.8869337039        5.6711868753        6.7848734366
O         0.0002942645       11.3501448244        1.9726163246
O         0.0002302734        5.6711807325        0.4255182557
O         1.8875212413       11.3501013102        5.2397538867
O         0.0002462497        7.5679916189        1.9781521355
O         1.8870794002        9.4619978482        6.7833683480
O         7.5679889770        1.8870018116        4.3811070786
O         9.4620863462        0.0003346538        9.1880233196
O         1.8870293593        7.5679692197        5.2338469625
O         0.0002204038        9.4620647566        0.4270412790
O         9.4620196771        1.8871315277        2.8316538862
O         7.5680108007        0.0003600414        7.6368019233
O         3.7660397971        0.0001461794        1.9739899122
O        13.2383361657        1.8885123579        6.7802012873
O         0.0001374228        5.6614502873        4.3767265122
O         1.8885371571       11.3509164044        9.1831045403
O        13.2383374022        0.0000301624        5.2358345785
O         3.7660430334        1.8885707477        0.4322820375
O         1.8884592159        5.6612105314        2.8370718906
O         0.0000544980       11.3507771621        7.6406140623
O        11.3508951452        1.8885350722        0.4319858424
O         5.6613570819        0.0001568332        5.2383241365
O         5.6612286639        1.8884213018        6.7779260325
O        11.3507749191        0.0000812826        1.9744693346
O         1.8885597283        3.7660939572        9.1826648345
O         0.0000364138       13.2383113210        4.3792455901
O         0.0001447645        3.7660699292        7.6410082118
O         1.8885404422       13.2383655546        2.8348606702
O         3.7659113569        3.7769926230        1.9758205464
O        13.2383888128       13.2384733319        6.7828419807
O        11.3502488874        5.6613874297        4.3740127509
O         5.6711885459       11.3514652879        9.1887390836
O        13.2383121462        3.7768518627        5.2343945324
O         3.7660635986       13.2383681675        0.4296916939
O         5.6711359881        5.6611264924        2.8306160136
O        11.3501381190       11.3509705158        7.6433692132
O        11.3507386389       13.2384036925        0.4293113309
O         5.6612645203        3.7769078111        5.2360608623
O         3.7769030638       11.3513406989        7.6390492351
O        13.2383774156        5.6612545275        2.8346569937
O         5.6613521765       13.2383695415        6.7804423048
O        11.3513675384        3.7769262341        1.9760636623
O        13.2384671070       11.3508091643        9.1856847633
O         3.7769252401        5.6610619858        4.3788787711
O         5.6608881018        5.6711533587        6.7844175774
O        11.3509561126       11.3501219489        1.9716286622
O        13.2383664667        3.7661331189        9.1853548103
O         3.7768317557       13.2383392865        4.3806155213
O        11.3515053979        5.6711953503        0.4263568562
O         5.6611814971       11.3502556452        5.2410461312
O         3.7770383271        3.7658770498        7.6391443395
O        13.2384789314       13.2383038491        2.8321653825
O        13.2383366980       11.3501440087        5.2387042400
O         3.7658526236        5.6712196486        0.4263792206
O         5.6711616169       13.2382247960        2.8292279596
O        11.3501189444        3.7661334190        7.6437328650
O         3.7661827039       11.3500971408        1.9713197967
O        13.2383201519        5.6711711978        6.7857581914
O        11.3501403415       13.2382294087        4.3763050228
O         5.6712374711        3.7658365381        9.1886422546
O         3.7658367977        7.5679695800        1.9773130225
O        13.2384078057        9.4620952254        6.7842340720
O         7.5679862789        5.6611220436        4.3805735565
O         9.4620430831       11.3514138880        9.1871620022
O        13.2383548158        7.5680100004        5.2330805955
O         3.7659464608        9.4619418650        0.4280911029
O         9.4620074227        5.6609924441        2.8324897557
O         7.5679663513       11.3514960621        7.6376700800
O        11.3514082700        9.4620169655        0.4277961753
O         5.6608685531        7.5679716008        5.2345399304
O         5.6612724533        9.4620251244        6.7825450161
O        11.3515626811        7.5680121683        1.9774209889
O         9.4619173212        3.7659354360        9.1868935014
O         7.5680025946       13.2381525262        4.3819727388
O         7.5679477751        3.7658220457        7.6378060955
O         9.4620927598       13.2382055134        2.8308020195
O         7.5785784940        0.0001364636        1.9730275352
O         9.4722475209        1.8885483173        6.7789353003
O         0.0001577047        9.4722572152        4.3778705218
O         1.8884628921        7.5785031677        9.1817252434
O         9.4722746400        0.0001645458        5.2371314295
O         7.5785991491        1.8884351370        0.4333457774
O         1.8885759630        9.4723372671        2.8360692134
O         0.0001302732        7.5786920796        7.6420242797
O         7.5788966637        3.7769240877        1.9752145116
O         9.4722707714       13.2383414365        6.7816465147
O        11.3501098728        9.4723228782        4.3751536990
O         5.6711779216        7.5788695782        9.1882113584
O         9.4724797448        3.7770208064        5.2354289271
O         7.5786488937       13.2383749444        0.4308186384
O         5.6712343348        9.4726163972        2.8301983838
O        11.3502105983        7.5786600640        7.6446727218
O         3.7769233871        7.5790379855        7.6398351169
O        13.2383380286        9.4722919085        2.8334452814
O        13.2383624407        7.5786241282        9.1841582095
O         3.7770343848        9.4724852335        4.3796745929
O         9.4725149525        5.6712111684        6.7848154753
O         7.5786400752       11.3502592364        1.9702321692
O         7.5788754416        5.6711846742        0.4268780077
O         9.4721654173       11.3500948712        5.2400315682
O         7.5790965542        7.5679820795        1.9767981213
O         9.4723635076        9.4619391839        6.7832415129
O         7.5679383113        9.4726175534        4.3809430979
O         9.4620228334        7.5788015885        9.1863254229
O         9.4724662696        7.5679251857        5.2338888260
O         7.5787051259        9.4620287755        0.4287181465
O         9.4618894894        9.4726160885        2.8317254270
O         7.5680373055        7.5790721901        7.6381804499
     192
 i =        3, E =     -5766.4956699700
Ti         0.0001701800        0.0001964142        0.0000564421
Ti         1.8880478647        1.8880069532        4.8075028207
Ti         0.0002025733        1.8880592406        2.4038702292
Ti         1.8880583629        0.0001955608        7.2112257707
Ti         0.0002171228        3.7738971701        0.0026734081
Ti         1.8880891504       13.2383004733        4.8076187136
Ti        11.3506199648        1.8880109779        2.4037212267
Ti         5.6695237648        0.0001701728        7.2158761732
Ti         1.8879687705        3.7738320204        7.2085169829
Ti         0.0001962869       13.2383225949        2.4038334253
Ti         5.6694849721        1.8878117510        4.8026998679
Ti        11.3505681024        0.0002121498        0.0000959077
Ti         3.7738768466        0.0002185813       -0.0026824546
Ti        13.2383185873        1.8880819356        4.8074758324
Ti        13.2383317812        0.0002008548        7.2112558266
Ti         3.7738407558        1.8879767695        2.4064495487
Ti         1.8878183714        5.6694868449        4.8122601673
Ti         0.0001895770       11.3505679434       -0.0000261510
Ti         0.0001546250        5.6694953522        2.3991316973
Ti         1.8880359319       11.3506258539        7.2113879401
Ti         0.0001866827        7.5698287242        0.0045335400
Ti         1.8879513648        9.4650086826        4.8101543276
Ti         7.5698469630        1.8878215808        2.4084522813
Ti         9.4649615156        0.0002087756        7.2137597340
Ti         1.8878592266        7.5698777836        7.2065632763
Ti         0.0001933757        9.4649664767        2.4012832785
Ti         9.4650049315        1.8879563311        4.8048914781
Ti         7.5698219112        0.0002004216       -0.0045291673
Ti         3.7738416828        3.7738359574       -0.0000382323
Ti        13.2383332778       13.2383338765        4.8075098143
Ti        11.3508316519        5.6694870652        2.3989468293
Ti         5.6694645970       11.3508301782        7.2161255618
Ti        13.2383081285        3.7738852417        7.2086763699
Ti         3.7738876790       13.2383015968        2.4063810043
Ti         5.6693514293        5.6693734288        4.8075162198
Ti        11.3506174177       11.3506176910       -0.0000293802
Ti        11.3505438411       13.2383000346        2.4036736644
Ti         5.6694267085        3.7736585461        7.2131832740
Ti         3.7738336852       11.3506569703       -0.0027369739
Ti        13.2383491793        5.6694995008        4.8121670305
Ti         5.6694866491       13.2383280913        4.8028814324
Ti        11.3506805561        3.7738471854        0.0028137753
Ti        13.2383307434       11.3505704906        7.2113582325
Ti         3.7736574477        5.6694616055        2.4018031020
Ti         3.7736683462        7.5698790824        0.0018683830
Ti        13.2382971879        9.4649546533        4.8100139438
Ti         7.5699778329        5.6693941741        2.4036597391
Ti         9.4650066708       11.3506614079        7.2139526084
Ti        13.2383365565        7.5698551616        7.2067067766
Ti         3.7738359305        9.4650174266        2.4039419936
Ti         9.4651718562        5.6694856369        4.8095394800
Ti         7.5698304845       11.3508285268       -0.0047491244
Ti        11.3506778526        9.4650188993        2.4010907276
Ti         5.6693505878        7.5699933609        7.2113696244
Ti         5.6694102763        9.4651712815        4.8054847468
Ti        11.3507987243        7.5698937613        0.0047207846
Ti         9.4650173778        3.7738361956        7.2111194801
Ti         7.5698249109       13.2383352680        2.4083034977
Ti         7.5698635955        3.7736831146       -0.0018365416
Ti         9.4649491042       13.2382797879        4.8050322448
Ti         7.5699737290        7.5699548252       -0.0000067015
Ti         9.4650293070        9.4649963451        4.8074797249
Ti         7.5699356156        9.4651694531        2.4056852173
Ti         9.4651736288        7.5699341769        7.2092522455
O         0.0014389173        0.0017406267        1.9715576113
O         1.8838093442        1.8865350392        6.7748581659
O         0.0017221363        1.8838506460        4.3765155170
O         1.8865137336        0.0014586976        9.1774505682
O         1.8838684005        0.0017128859        5.2385582877
O         0.0014996984        1.8865485557        0.4376416470
O         1.8865501343        1.8838604826        2.8401450588
O         0.0017526456        0.0014545780        7.6435608035
O         0.0014600976        3.7759860029        1.9701544722
O         1.8838153927       13.2367896018        6.7803084863
O        11.3520951475        1.8838832943        4.3711684222
O         5.6709969093        0.0013546373        9.1852170957
O         1.8838311130        3.7759769168        5.2397687194
O         0.0014715760       13.2367748843        0.4323133709
O         5.6709884250        1.8836628243        2.8320216360
O        11.3520807081        0.0014731123        7.6487632425
O         3.7759994510        0.0014899876        7.6448883402
O        13.2367864772        1.8837996415        2.8348037474
O        13.2367567821        0.0014718549        9.1827600421
O         3.7760006941        1.8837946151        4.3751939691
O         1.8836025564        5.6709973369        6.7829394054
O         0.0015230349       11.3520940858        1.9663066880