     192
 i =        1, E =     -5766.4915479747
Ti         0.0006187379        0.0006195600        0.0000011900
Ti        -0.0011805850       -0.0011821933       -0.0000089223
Ti         0.0006373904       -0.0011871774       -0.0006788906
Ti        -0.0011929419        0.0006156304        0.0006778673
Ti         0.0006306221       -0.0015956311        0.0003784196
Ti        -0.0012071470       -0.0006950375       -0.0006841368
Ti         0.0011414482       -0.0011793086       -0.0000068281
Ti        -0.0004877925        0.0006240913        0.0005068284
Ti        -0.0011304538       -0.0016123491        0.0003259325
Ti         0.0006264138       -0.0007069546        0.0000127729
Ti        -0.0004921664       -0.0011316729        0.0001719863
Ti         0.0011758334        0.0006348686       -0.0006833000
Ti        -0.0016006664        0.0006327907       -0.0003749678
Ti        -0.0006972468       -0.0011966278        0.0006969786
Ti        -0.0007032429        0.0006340743       -0.0000017479
Ti        -0.0015995129       -0.0011406116       -0.0003117179
Ti        -0.0011487251       -0.0004809835       -0.0001958150
Ti         0.0006490501        0.0011590348        0.0007075897
Ti         0.0006466846       -0.0005062733       -0.0005057246
Ti        -0.0011636698        0.0011573374        0.0000071901
Ti         0.0006605088        0.0005665613        0.0005112671
Ti        -0.0011532459        0.0016085516       -0.0003161574
Ti         0.0005625012       -0.0011422842       -0.0001756082
Ti         0.0016294712        0.0006222918        0.0003545598
Ti        -0.0011196448        0.0005816394        0.0001826425
Ti         0.0006379822        0.0016447723       -0.0003643182
Ti         0.0016220901       -0.0011707541        0.0003080259
Ti         0.0005579952        0.0006344043       -0.0005043109
Ti        -0.0015823313       -0.0015844851       -0.0000132922
Ti        -0.0006877102       -0.0006860920       -0.0000099920
Ti         0.0010914882       -0.0004934716        0.0001893419
Ti        -0.0005022923        0.0010997710       -0.0001711323
Ti        -0.0007131449       -0.0016171730       -0.0003712207
Ti        -0.0016030416       -0.0007110288        0.0003779654
Ti        -0.0004886809       -0.0005052218        0.0000023315
Ti         0.0011423646        0.0011324246       -0.0000068591
Ti         0.0011638749       -0.0006895297        0.0006955246
Ti        -0.0005180691       -0.0015747932        0.0001263399
Ti        -0.0016147007        0.0011309104        0.0003049114
Ti        -0.0006987851       -0.0004920752        0.0005088878
Ti        -0.0004938546       -0.0006886914       -0.0005147356
Ti         0.0011401210       -0.0016220464       -0.0003121174
Ti        -0.0007220895        0.0011534472       -0.0006934458
Ti        -0.0015874827       -0.0004847579       -0.0001410920
Ti        -0.0015845440        0.0005525882        0.0001227162
Ti        -0.0007128288        0.0016206768        0.0003670856
Ti         0.0005766350       -0.0004927665       -0.0000010008
Ti         0.0016371737        0.0011185015       -0.0002962343
Ti        -0.0007159780        0.0005777642       -0.0005276998
Ti        -0.0016120920        0.0015960607        0.0000061683
Ti         0.0015982088       -0.0004657942        0.0001036676
Ti         0.0005645977        0.0010937919        0.0001638438
Ti         0.0011107501        0.0016147838        0.0003199801
Ti        -0.0005130966        0.0005822849        0.0000049283
Ti        -0.0005374020        0.0015840599       -0.0000954225
Ti         0.0010866705        0.0005960433       -0.0001754886
Ti         0.0016207679       -0.0016038145       -0.0000027764
Ti         0.0005626893       -0.0006737090        0.0005211031
Ti         0.0005429943       -0.0015722852       -0.0001128596
Ti         0.0016325567       -0.0006661171       -0.0003740238
Ti         0.0005659879        0.0005751943        0.0000099937
Ti         0.0016597580        0.0015607955        0.0000014214
Ti         0.0005983839        0.0015683065        0.0000922399
Ti         0.0016108436        0.0005990447       -0.0001398985
O        -0.0001794880        0.0001836254       -0.0020771732
O         0.0010020901        0.0003929712       -0.0021228555
O         0.0001962018        0.0010734553       -0.0018124261
O         0.0004278869       -0.0001601952       -0.0023528412
O         0.0010879872        0.0002061650        0.0018224721
O        -0.0001587059        0.0004409126        0.0023538253
O         0.0004244041        0.0010072846        0.0021213702
O         0.0001771474       -0.0001716241        0.0020790789
O        -0.0001902818       -0.0005085171       -0.0020685515
O         0.0010720293       -0.0002090456       -0.0018174688
O        -0.0004247929        0.0010346556       -0.0021242715
O        -0.0000776871       -0.0001759342       -0.0021798273
O         0.0009435144       -0.0004925402        0.0018282946
O        -0.0001869686       -0.0001977165        0.0020791431
O        -0.0000866026        0.0009109137        0.0019497104
O        -0.0004585114       -0.0001668309        0.0023624775
O        -0.0004960952       -0.0001575603        0.0020590709
O        -0.0002048525        0.0010672935        0.0018197645
O        -0.0001808867       -0.0001704560       -0.0020831292
O        -0.0005021559        0.0009224482       -0.0018299048
O         0.0008759602       -0.0000790196       -0.0019470742
O        -0.0001700285       -0.0004452182       -0.0023638565
O        -0.0001868551       -0.0000796536        0.0021711196
O         0.0010261778       -0.0004392492        0.0021280396
O        -0.0001845384        0.0000907307       -0.0021704875
O         0.0009228511        0.0005012334       -0.0018318185
O         0.0000939055        0.0009046231       -0.0019412663
O         0.0004877378       -0.0001758705       -0.0020683557
O         0.0009181166        0.0000850510        0.0019562472
O        -0.0002043412        0.0004867358        0.0020625879
O         0.0004874119        0.0009359460        0.0018321088
O         0.0000940354       -0.0001583568        0.0021856038
O        -0.0003438774        0.0002024070       -0.0017373234
O         0.0002432122        0.0004390701       -0.0023658463
O         0.0002190378       -0.0007884703       -0.0017623786
O         0.0004200534       -0.0010373901       -0.0021341436
O         0.0002304799        0.0002018228        0.0020856853
O        -0.0003424673        0.0003709167        0.0020464692
O         0.0003545393       -0.0008055039        0.0020602349
O         0.0001865849       -0.0010779829        0.0018160694
O        -0.0010510184        0.0004107444        0.0021298246
O        -0.0007971123        0.0002306054        0.0017686113
O        -0.0008013412        0.0003486499       -0.0020593296
O        -0.0010730007        0.0002054717       -0.0018253226
O         0.0003714784       -0.0003463033       -0.0020462195
O         0.0001873525        0.0002270059       -0.0020812164
O         0.0002157382       -0.0003199079        0.0017308096
O         0.0004482102        0.0002528867        0.0023583625
O        -0.0003734380       -0.0004990354       -0.0017489081
O         0.0002624418       -0.0001994179       -0.0020704268
O        -0.0003689867       -0.0008013475       -0.0020498630
O        -0.0000920874       -0.0009150042       -0.0019371468
O         0.0002198483       -0.0005065256        0.0020722165
O        -0.0003210190       -0.0002035099        0.0017437064
O        -0.0001031678       -0.0008291541        0.0017748424
O        -0.0004336763       -0.0010289876        0.0021322767
O        -0.0010895026       -0.0002115815        0.0018199733
O        -0.0008139422       -0.0005341160        0.0017073615
O        -0.0005042159       -0.0009382699        0.0018372475
O        -0.0002251191       -0.0007970337        0.0017567301
O        -0.0007942444       -0.0002335868       -0.0017680512
O        -0.0009233195       -0.0005052649       -0.0018314278
O        -0.0001919495       -0.0010635524       -0.0018218709
O        -0.0005351315       -0.0008258695       -0.0016987682
O        -0.0008354459       -0.0001018621       -0.0017738586
O        -0.0010199245       -0.0004308428       -0.0021298428
O        -0.0002143334       -0.0003190707       -0.0017395611
O        -0.0005049304        0.0002202267       -0.0020644952
O        -0.0009107965       -0.0000762913        0.0019334178
O        -0.0007952325       -0.0003756773        0.0020457172
O        -0.0005062207       -0.0003665734        0.0017533541
O        -0.0001972147        0.0002367513        0.0020736432
O         0.0002285480       -0.0004566943        0.0023647071
O        -0.0003832613       -0.0000920167        0.0018657451
O        -0.0000785820        0.0002155264        0.0021787384
O        -0.0003935131       -0.0003163514        0.0020500989
O        -0.0003207716       -0.0004076726       -0.0020460360
O         0.0002382408       -0.0000832393       -0.0021676372
O        -0.0004538566        0.0002064032       -0.0023564627
O        -0.0000866831       -0.0003882251       -0.0018650957
O        -0.0003698788        0.0001021045       -0.0018599334
O         0.0002538992        0.0004973873       -0.0020661011
O         0.0001090771       -0.0008272091       -0.0017684903
O         0.0004918497       -0.0009201160       -0.0018334216
O         0.0002325482        0.0000877554        0.0021789602
O        -0.0003695841        0.0004991717        0.0017544596
O         0.0005183828       -0.0008310422        0.0017067733
O         0.0000996301       -0.0009070348        0.0019298448
O        -0.0009339317        0.0004872256        0.0018516834
O        -0.0008366874        0.0001044342        0.0017660798
O        -0.0008073206        0.0005319572       -0.0017052637
O        -0.0008856328        0.0000967168       -0.0019578939
O         0.0005003429       -0.0003735530       -0.0017372323
O         0.0000905225        0.0001944832       -0.0021778413
O         0.0000962681       -0.0003821205        0.0018497326
O         0.0004800578        0.0002063874        0.0020630885
O         0.0008487704        0.0002180261       -0.0017757446
O         0.0002489936        0.0003597591       -0.0020490122
O         0.0002126154        0.0002610501       -0.0017350083
O         0.0003557031        0.0008449916       -0.0020636263
O         0.0002455446        0.0002177562        0.0017543392
O         0.0008549484        0.0003543574        0.0020509190
O         0.0003819470        0.0002524535        0.0020611364
O         0.0002190221        0.0008473130        0.0017563987
O         0.0008800430       -0.0005357386       -0.0017002380
O         0.0002371712       -0.0002181071       -0.0017408866
O        -0.0003853717        0.0002797681       -0.0020729151
O        -0.0001013410        0.0008859986       -0.0017701701
O         0.0003072961       -0.0005036094        0.0017407944
O         0.0008510272       -0.0002154875        0.0017653399
O        -0.0000831728        0.0003320789        0.0018543169
O        -0.0003757835        0.0008438703        0.0020647213
O        -0.0005388814        0.0008842381        0.0017068919
O        -0.0002398262        0.0002372571        0.0017372533
O        -0.0002200882        0.0008423504       -0.0017552123
O        -0.0005183920        0.0003089117       -0.0017630974
O         0.0003035631       -0.0000790791       -0.0018529710
O         0.0008485752       -0.0003693785       -0.0020345708
O         0.0008905979       -0.0001019294        0.0017657612
O         0.0002340307       -0.0004123891        0.0020400285
O         0.0008926370        0.0001141752       -0.0017733558
O         0.0002834268        0.0005023520       -0.0017701450
O         0.0000955720        0.0003534521       -0.0018422507
O         0.0005225029        0.0008627209       -0.0017200319
O         0.0002758978        0.0000964502        0.0018857613
O         0.0008636210        0.0005168734        0.0017050202
O         0.0005027394        0.0003100180        0.0017683011
O         0.0001221730        0.0008868034        0.0017689175
     192
 i =        2, E =     -5766.4949976774
Ti         0.0000161151        0.0000262299       -0.0000068744
Ti         0.0004873260        0.0004629163       -0.0000014256
Ti         0.0000139347        0.0005411113        0.0007827478
Ti         0.0005300135        0.0000181353       -0.0008161499
Ti        -0.0000010580       -0.0005551927        0.0002364700
Ti         0.0005352572        0.0000497157        0.0007801932
Ti        -0.0005214928        0.0004937873       -0.0000399165
Ti        -0.0011296534        0.0000080902       -0.0003354878
Ti         0.0004449747       -0.0005849513       -0.0009909687
Ti         0.0000180807        0.0000170030        0.0000074907
Ti        -0.0011308041        0.0003989518       -0.0004430725
Ti        -0.0005653339        0.0000204609        0.0008168092
Ti        -0.0005555889        0.0000112302       -0.0002240340
Ti         0.0000430133        0.0005357376       -0.0007772658
Ti         0.0000387488        0.0000386787        0.0000005965
Ti        -0.0005934845        0.0004352222        0.0010119140
Ti         0.0003859491       -0.0011198871        0.0004634502
Ti         0.0000073512       -0.0005616153       -0.0007890599
Ti        -0.0000081177       -0.0011389633        0.0003312091
Ti         0.0004984566       -0.0005173065        0.0000118516
Ti        -0.0000027563        0.0011841090       -0.0003191758
Ti         0.0004505730        0.0005057282        0.0009970798
Ti         0.0011979581        0.0004034404        0.0004668117
Ti         0.0004736196        0.0000097716        0.0002212385
Ti         0.0004081354        0.0011864267       -0.0004672912
Ti        -0.0000016800        0.0004909587       -0.0002253058
Ti         0.0005010780        0.0004272842       -0.0010062447
Ti         0.0011913201        0.0000073086        0.0003236571
Ti        -0.0006025578       -0.0006005049       -0.0000125522
Ti         0.0000383812        0.0000150524       -0.0000178094
Ti        -0.0004290458       -0.0011295719       -0.0004868508
Ti        -0.0011264798       -0.0004434757        0.0004572891
Ti         0.0000327504       -0.0005558631       -0.0002264154
Ti        -0.0005558976        0.0000381107        0.0002483496
Ti        -0.0011263394       -0.0011412309        0.0000184322
Ti        -0.0005197139       -0.0005117079        0.0000281995
Ti        -0.0005598086        0.0000188302       -0.0008084625
Ti        -0.0011412054       -0.0006364284       -0.0004874368
Ti        -0.0005783391       -0.0004714052       -0.0010325102
Ti         0.0000536824       -0.0011288761       -0.0003309308
Ti        -0.0011233077        0.0000194370        0.0003284440
Ti        -0.0004610819       -0.0005865169        0.0010226425
Ti         0.0000443079       -0.0005659333        0.0007979567
Ti        -0.0006412802       -0.0011306926        0.0004755797
Ti        -0.0006304742        0.0011839615       -0.0005032371
Ti         0.0000301138        0.0004870390        0.0002086822
Ti         0.0012104556       -0.0011411296        0.0000161509
Ti         0.0004853221       -0.0004707862        0.0010191111
Ti         0.0000542424        0.0011791651        0.0003139319
Ti        -0.0006095681        0.0005380668        0.0000104845
Ti         0.0005491258       -0.0011147296       -0.0004982661
Ti         0.0011878241       -0.0004374772       -0.0004859986
Ti        -0.0004611648        0.0005155927       -0.0010058229
Ti        -0.0011403922        0.0012074708        0.0000009750
Ti        -0.0011359928        0.0005927481        0.0005223796
Ti        -0.0004309311        0.0011840264        0.0005019599
Ti         0.0005413090       -0.0006020883        0.0000132269
Ti         0.0011872619        0.0000301088       -0.0002956955
Ti         0.0011853468       -0.0006361858        0.0004998961
Ti         0.0004612157        0.0000325137       -0.0002388602
Ti         0.0011975007        0.0012024089       -0.0000061627
Ti         0.0005303238        0.0005329108        0.0000017517
Ti         0.0011942025        0.0005785127       -0.0004844413
Ti         0.0005433058        0.0011892863        0.0004798341
O         0.0002660021        0.0006018910       -0.0004988834
O        -0.0010152198       -0.0004826497       -0.0002966981
O         0.0005840400       -0.0010775550       -0.0002001349
O        -0.0005018736        0.0002454917       -0.0005849011
O        -0.0010887251        0.0005635470        0.0002115432
O         0.0002592571       -0.0004916504        0.0005913188
O        -0.0004849928       -0.0010046010        0.0002983621
O         0.0005996862        0.0002617234        0.0005087239
O         0.0002851498        0.0005049970       -0.0013082442
O        -0.0010878900       -0.0005423269       -0.0001805821
O         0.0004899951       -0.0010318873       -0.0002499252
O         0.0000248682        0.0002506037       -0.0007996884
O        -0.0009159063        0.0004798965        0.0009821981
O         0.0002826204       -0.0005794980        0.0004919832
O         0.0000151226       -0.0009163143        0.0004698034
O         0.0005207301        0.0002614012        0.0005417382
O         0.0005111642        0.0002616968        0.0013099816
O        -0.0005454548       -0.0010848752        0.0001902572
O        -0.0005806361        0.0002669543       -0.0004909736
O         0.0004860378       -0.0009094534       -0.0009922581
O        -0.0008979074        0.0000307449       -0.0004708678
O         0.0002812011        0.0005012413       -0.0005421868
O         0.0002765228        0.0000212273        0.0007993551
O        -0.0010233844        0.0005037441        0.0002586650
O         0.0002758163       -0.0000271936       -0.0008127433
O        -0.0009226037       -0.0004927310       -0.0009836517
O        -0.0000251627       -0.0009145736       -0.0004982580
O        -0.0005201736        0.0002629944       -0.0013091659
O        -0.0009133956       -0.0000276417        0.0005054550
O         0.0002947116       -0.0005086970        0.0013029392
O        -0.0004956972       -0.0009294773        0.0009909995
O        -0.0000311097        0.0002447858        0.0008304298
O         0.0008307144        0.0005418537       -0.0001878290
O        -0.0003427626       -0.0004868557       -0.0005939042
O         0.0005354690       -0.0004659397        0.0000820796
O        -0.0004828882        0.0010534561       -0.0003019637
O        -0.0003485863        0.0006057310        0.0005100530
O         0.0008359147       -0.0004637545        0.0002950499
O        -0.0004473858       -0.0004536509        0.0000488471
O         0.0005891968        0.0011063734        0.0002079094
O         0.0010592718       -0.0004781773        0.0003126083
O        -0.0004562153        0.0005194156       -0.0000880714
O        -0.0004561311       -0.0004289068       -0.0000573671
O         0.0011076054        0.0005698505       -0.0002098692
O        -0.0004538923        0.0008242751       -0.0002969049
O         0.0006024691       -0.0003361470       -0.0005104407
O         0.0005401059        0.0008178477        0.0001833848
O        -0.0004958374       -0.0003524561        0.0005943815
O         0.0008731662        0.0004838986       -0.0009787034
O        -0.0003545620       -0.0005776919       -0.0004851426
O         0.0004409007       -0.0004642539        0.0000057421
O         0.0000169008        0.0009450395       -0.0004729387
O        -0.0003339405        0.0005038728        0.0013199600
O         0.0008172176       -0.0005181778        0.0001702480
O         0.0000345827       -0.0005257742        0.0002533530
O         0.0005007641        0.0010398782        0.0002561042
O         0.0011162256       -0.0005356719        0.0001928773
O        -0.0004815817        0.0004743804        0.0007421808
O         0.0004811181        0.0009519030        0.0010070747
O        -0.0005033375       -0.0004542628       -0.0001006707
O        -0.0004606965       -0.0004941493        0.0001002919
O         0.0009504517        0.0004768658       -0.0010008164
O        -0.0005694989        0.0011021257       -0.0001961126
O         0.0004668866       -0.0004720580       -0.0007378631
O        -0.0005003127        0.0000243783       -0.0002599838
O         0.0010525909        0.0004964670       -0.0002733447
O        -0.0005217064        0.0007981728       -0.0001764434
O         0.0005117079       -0.0003398708       -0.0013163483
O         0.0009281925        0.0000314989        0.0004768124
O        -0.0004547169        0.0004360067        0.0000047829
O         0.0004659109        0.0008778601        0.0009808883
O        -0.0005796694       -0.0003274833        0.0004980483
O        -0.0003425046        0.0005022755        0.0005510782
O         0.0008614875        0.0000357067        0.0004962046
O         0.0000257023       -0.0002888382        0.0008071036
O         0.0004695540        0.0008095404        0.0002524175
O         0.0007943770        0.0004825778       -0.0002523466
O        -0.0003176411        0.0000272821       -0.0007971847
O         0.0005007859       -0.0003166552       -0.0005358341
O         0.0000290853        0.0008641625       -0.0004930174
O         0.0008646658       -0.0000434377       -0.0005091329
O        -0.0003592413       -0.0005117657       -0.0013020964
O        -0.0000327887       -0.0005195986       -0.0002829714
O        -0.0005000485        0.0009319519       -0.0009939129
O        -0.0003334264       -0.0000287580        0.0008280235
O         0.0008613950       -0.0004973621        0.0009790324
O        -0.0004762052       -0.0004596292        0.0007360779
O        -0.0000200090        0.0009358457        0.0005042397
O         0.0009361850       -0.0004983288        0.0010004253
O        -0.0004974135       -0.0000240106        0.0002678888
O        -0.0004775893       -0.0004791751       -0.0007373810
O         0.0009126542       -0.0000299455       -0.0005140363
O        -0.0004838069        0.0008677084       -0.0009645927
O        -0.0000294096       -0.0002749514       -0.0008327115
O        -0.0000390617        0.0008700105        0.0004960672
O        -0.0005193069       -0.0003026694        0.0013112998
O         0.0003443396        0.0005260871        0.0000767285
O        -0.0007361152       -0.0004538584       -0.0003091488
O         0.0005386820       -0.0007293439       -0.0001986978
O        -0.0004455333        0.0003542408       -0.0000582038
O        -0.0007320974        0.0005256720        0.0002039341
O         0.0003460811       -0.0004329167        0.0000533553
O        -0.0004608287       -0.0007590320        0.0003120439
O         0.0005377058        0.0003310102       -0.0000827322
O         0.0003349627        0.0004776212       -0.0007435161
O        -0.0007300889       -0.0004975927       -0.0001886267
O         0.0004620258       -0.0007531947       -0.0002752074
O         0.0000255576        0.0003856202       -0.0002641124
O        -0.0007970736        0.0004712109        0.0009787907
O         0.0003330504       -0.0004888124       -0.0001016271
O         0.0000285032       -0.0008157519        0.0004874513
O         0.0004501693        0.0003408146        0.0000065122
O         0.0004701696        0.0003257284        0.0007509406
O        -0.0005095117       -0.0007373822        0.0001929556
O        -0.0005053805        0.0003333795        0.0000929441
O         0.0004649479       -0.0008000035       -0.0009968479
O        -0.0007855823        0.0000416940       -0.0004929086
O         0.0003400022        0.0004338629       -0.0000058924
O         0.0003886704        0.0000214289        0.0002569712
O        -0.0007127567        0.0004758629        0.0002617321
O         0.0003661088       -0.0000221955       -0.0002816593
O        -0.0007638887       -0.0005023505       -0.0009927412
O        -0.0000358672       -0.0008141088       -0.0005098639
O        -0.0004798244        0.0003418298       -0.0007491296
O        -0.0007720046       -0.0000221291        0.0005314852
O         0.0003544612       -0.0004945375        0.0007328277
O        -0.0004649838       -0.0008326880        0.0009923286
O        -0.0000369597        0.0003580495        0.0002902814
     192
 i =        3, E =     -5766.4956699700
Ti         0.0001703714        0.0001668330       -0.0000053775
Ti         0.0000092463        0.0000147212        0.0000019011
Ti         0.0001617776       -0.0000022351        0.0001420539
Ti        -0.0000095844        0.0001672206       -0.0001464918
Ti         0.0001652401        0.0005086437        0.0002716408
Ti        -0.0000046589       -0.0001575245        0.0001295443
Ti         0.0000208991        0.0000088957       -0.0000107731
Ti        -0.0002158691        0.0001651536        0.0005025250
Ti         0.0000128297        0.0005340471       -0.0004226848
Ti         0.0001725749       -0.0001548833        0.0000070039
Ti        -0.0002212832        0.0000339342       -0.0006267086
Ti         0.0000305055        0.0001608130        0.0001581489
Ti         0.0005172635        0.0001574334       -0.0002661964
Ti        -0.0001623301       -0.0000048257       -0.0001348370
Ti        -0.0001609316        0.0001667817       -0.0000114373
Ti         0.0005309714        0.0000204672        0.0004218573
Ti         0.0000324874       -0.0002280861        0.0006379534
Ti         0.0001670178        0.0000404107       -0.0001649848
Ti         0.0001673985       -0.0002142867       -0.0004953984
Ti        -0.0000029305        0.0000204605        0.0000105650
Ti         0.0001615536        0.0001430432        0.0004773160
Ti         0.0000173718       -0.0005107811        0.0003947216
Ti         0.0001531050        0.0000351329        0.0006145552
Ti        -0.0004959091        0.0001606069        0.0002518238
Ti         0.0000195949        0.0001389100       -0.0006115792
Ti         0.0001708657       -0.0005051317       -0.0002495703
Ti        -0.0005086668        0.0000256176       -0.0003980704
Ti         0.0001465460        0.0001570249       -0.0004796231
Ti         0.0005251369        0.0005274452        0.0000078086
Ti        -0.0001672627       -0.0001608889        0.0000042009
Ti        -0.0000018606       -0.0002218440       -0.0006494098
Ti        -0.0002180687        0.0000027173        0.0006429749
Ti        -0.0001529960        0.0005160016       -0.0002869071
Ti         0.0005094800       -0.0001453901        0.0002806044
Ti        -0.0002746598       -0.0002830761        0.0000000463
Ti         0.0000276971        0.0000314747        0.0000050691
Ti         0.0000400822       -0.0001502407       -0.0001480867
Ti        -0.0002415520        0.0005333159        0.0002033408
Ti         0.0005251643        0.0000129048       -0.0004291482
Ti        -0.0001563699       -0.0002189251        0.0005140164
Ti        -0.0002133574       -0.0001493642       -0.0005080058
Ti         0.0000023084        0.0005313196        0.0004314313
Ti        -0.0001514291        0.0000403605        0.0001456406
Ti         0.0005358514       -0.0002601023       -0.0002035228
Ti         0.0005364088        0.0001827100        0.0001878619
Ti        -0.0001567199       -0.0004917825        0.0002634985
Ti         0.0001921963       -0.0002863898       -0.0000133265
Ti        -0.0005098165        0.0000147097        0.0004033373
Ti        -0.0001508546        0.0001360508       -0.0004866533
Ti         0.0005300317       -0.0005146283        0.0000150139
Ti        -0.0005156287       -0.0002671120        0.0002382643
Ti         0.0001469801        0.0000036624       -0.0006209757
Ti         0.0000132499       -0.0005154776       -0.0004063744
Ti        -0.0002649240        0.0001901345        0.0000268136
Ti        -0.0002337015       -0.0005104936       -0.0002354116
Ti        -0.0000016529        0.0001337350        0.0006253044
Ti        -0.0005123613        0.0005346953       -0.0000194010
Ti         0.0001420813       -0.0001436186        0.0004920155
Ti         0.0001867710        0.0005328467       -0.0001827002
Ti        -0.0004945480       -0.0001499927       -0.0002573645
Ti         0.0001980594        0.0001970647       -0.0000067096
Ti        -0.0005187259       -0.0005037468        0.0000062621
Ti         0.0001573066       -0.0005144499        0.0002210785
Ti        -0.0005170720        0.0001610136       -0.0002002645
O        -0.0001308668       -0.0005851016       -0.0001173102
O         0.0001788376        0.0001703546        0.0000632492
O        -0.0005813865        0.0001788788       -0.0001267667
O         0.0001795130       -0.0001350436        0.0000702030
O         0.0001789330       -0.0005881103        0.0001315998
O        -0.0001444851        0.0001650001       -0.0000627475
O         0.0001666379        0.0001662756       -0.0000615513
O        -0.0005942528       -0.0001328269        0.0001271478
O        -0.0001469277        0.0001036396       -0.0005680209
O         0.0001885833        0.0005869696       -0.0001298227
O        -0.0001643867        0.0001638830        0.0000734435
O         0.0001625406       -0.0001293473       -0.0002332602
O         0.0001474218        0.0000996207        0.0005949890
O        -0.0001412206        0.0005848517        0.0001409152
O         0.0001637199        0.0001720192        0.0002781919
O        -0.0001596022       -0.0001370016       -0.0000770093
O         0.0000937985       -0.0001499241        0.0005699193
O         0.0005923276        0.0001907435        0.0001364029
O         0.0005925179       -0.0001372092       -0.0001284374
O         0.0000978146        0.0001536700       -0.0005973069
O         0.0001878586        0.0001654734       -0.0002814447
O        -0.0001532259       -0.0001711730        0.0000859967