     192
 i =        1, E =     -5782.0950672671
Ti        -0.0006951437       -0.0007067179        0.0000016603
Ti         1.8927321795        1.8927380508        4.8075060042
Ti        -0.0006647883        1.8927343751        2.4026351145
Ti         1.8927487046       -0.0006667047        7.2123758321
Ti        -0.0006439935        3.7811865826        0.0016991205
Ti         1.8927673035       13.2394818956        4.8063708686
Ti        11.3461080969        1.8927293275        2.4037160493
Ti         5.6738671012       -0.0006343391        7.2133650936
Ti         1.8926968702        3.7812305227        7.2106908798
Ti        -0.0006898137       13.2394771772        2.4037835255
Ti         5.6738870882        1.8927096957        4.8065216819
Ti        11.3460707808       -0.0006766916       -0.0010959271
Ti         3.7811937548       -0.0006417185       -0.0016940266
Ti        13.2394636861        1.8927536422        4.8086375107
Ti        13.2394917487       -0.0006944662        7.2112607943
Ti         3.7812278482        1.8927134500        2.4043320816
Ti         1.8926998622        5.6738850844        4.8084864466
Ti        -0.0006748900       11.3460864938        0.0010858465
Ti        -0.0006403284        5.6738674570        2.4016394041
Ti         1.8927425012       11.3461076279        7.2112935461
Ti        -0.0006329531        7.5650767601        0.0020951035
Ti         1.8927413178        9.4576975275        4.8080550335
Ti         7.5650811220        1.8927026121        2.4047302114
Ti         9.4577060169       -0.0006458657        7.2129367510
Ti         1.8927022088        7.5650776038        7.2102987123
Ti        -0.0006378476        9.4576998031        2.4020856512
Ti         9.4576852027        1.8927283436        4.8069656749
Ti         7.5650562248       -0.0006330846       -0.0020888011
Ti         3.7812231687        3.7812266397        0.0000050160
Ti        13.2394919058       13.2395071134        4.8075083826
Ti        11.3461536649        5.6738736033        2.4027408193
Ti         5.6738807809       11.3461426869        7.2122766752
Ti        13.2394374612        3.7812173037        7.2095658923
Ti         3.7812116237       13.2394310836        2.4054681583
Ti         5.6738859551        5.6738904136        4.8075129929
Ti        11.3460984184       11.3461085124       -0.0000001665
Ti        11.3460942649       13.2394567537        2.4048652576
Ti         5.6738685377        3.7812297552        7.2116853763
Ti         3.7812233709       11.3461426919       -0.0006047915
Ti        13.2394360855        5.6738759224        4.8096354710
Ti         5.6738963274       13.2394507376        4.8053994362
Ti        11.3461265052        3.7812139120        0.0005999595
Ti        13.2394618858       11.3460739967        7.2101624646
Ti         3.7812269988        5.6738742505        2.4033447480
Ti         3.7812273908        7.5650814513        0.0004046416
Ti        13.2394716265        9.4577172339        4.8091930497
Ti         7.5650823313        5.6738678456        2.4037348919
Ti         9.4576841922       11.3461247524        7.2118428080
Ti        13.2394365209        7.5650708934        7.2091707111
Ti         3.7812288522        9.4576662756        2.4037858531
Ti         9.4576919717        5.6738974922        4.8079497839
Ti         7.5650754658       11.3461520149       -0.0009981572
Ti        11.3461425035        9.4576860463        2.4031771955
Ti         5.6738666773        7.5650755808        7.2112712992
Ti         5.6738973938        9.4577067976        4.8070629322
Ti        11.3461428098        7.5650706862        0.0009894338
Ti         9.4576775082        3.7812191082        7.2112375134
Ti         7.5650736620       13.2394307571        2.4058534787
Ti         7.5650685118        3.7812115169       -0.0004083182
Ti         9.4577156197       13.2394734951        4.8058266068
Ti         7.5650709165        7.5650738289        0.0000000373
Ti         9.4577118386        9.4577095468        4.8075144661
Ti         7.5650730850        9.4576867097        2.4041741865
Ti         9.4576774272        7.5650708939        7.2108454301
O         0.0012906557        0.0026814740        1.9930953374
O         1.8845184858        1.8897907035        6.7987944657
O         0.0026576041        1.8843138688        4.3960342854
O         1.8897199219        0.0012971704        9.2033052918
O         1.8842966443        0.0026714649        5.2189874616
O         0.0012945301        1.8897165568        0.4117051301
O         1.8897782859        1.8844996872        2.8162283412
O         0.0026909877        0.0013040820        7.6219241838
O         0.0012843083        3.7816834484        1.9930464720
O         1.8843096902       13.2360923145        6.7997740801
O        11.3490395776        1.8844745648        4.3950050427
O         5.6727822403        0.0012820461        9.2046721756
O         1.8847153624        3.7817007560        5.2188968574
O         0.0013209341       13.2360617014        0.4106734872
O         5.6728127431        1.8847877663        2.8147523460
O        11.3490982435        0.0012802922        7.6229932967
O         3.7816787475        0.0012841644        7.6219780768
O        13.2360981178        1.8843160863        2.8152511780
O        13.2360544241        0.0013179584        9.2043645689
O         3.7817083049        1.8847226236        4.3961302999
O         1.8848314834        5.6727968403        6.8002689677
O         0.0012844572       11.3490918640        1.9920197236
O         0.0012966514        5.6728011384        0.4103420525
O         1.8844510450       11.3490558796        5.2200082233
O         0.0012801349        7.5661884772        1.9933970927
O         1.8847047560        9.4572094429        6.7998580935
O         7.5661887282        1.8847946717        4.3964979120
O         9.4572166608        0.0012862963        9.2042958720
O         1.8847702177        7.5661855491        5.2185292291
O         0.0012808953        9.4572113594        0.4107288723
O         9.4571992982        1.8847004615        2.8151658507
O         7.5662043529        0.0012789008        7.6216325823
O         3.7750956333        0.0026357262        1.9917963152
O        13.2372083319        1.8897226034        6.7995503302
O         0.0026254070        5.6705751911        4.3952464434
O         1.8897738991       11.3541900325        9.2025770653
O        13.2371443647        0.0026894537        5.2181595112
O         3.7752116921        1.8898401197        0.4128807125
O         1.8898524950        5.6706214430        2.8168914917
O         0.0026515968       11.3543986888        7.6227075667
O        11.3542089587        1.8897786722        0.4124378652
O         5.6705535259        0.0026344801        5.2197606649
O         5.6706241909        1.8898437936        6.7981165778
O        11.3544063957        0.0026523607        1.9923169310
O         1.8898340506        3.7752082409        9.2021402345
O         0.0026909521       13.2371291261        4.3968746467
O         0.0026284885        3.7750744961        7.6232265994
O         1.8897201958       13.2372347277        2.8154581200
O         3.7753010776        3.7817157008        1.9920930555
O        13.2371801070       13.2360685466        6.8005842714
O        11.3489729262        5.6705875950        4.3943317248
O         5.6728044203       11.3538826314        9.2040374362
O        13.2372103171        3.7816861127        5.2182201036
O         3.7750960550       13.2361255104        0.4119751446
O         5.6728099683        5.6706225597        2.8151467977
O        11.3490500470       11.3542346217        7.6237378746
O        11.3543991991       13.2360886398        0.4114613724
O         5.6705911114        3.7817301932        5.2193855560
O         3.7817076502       11.3539772715        7.6226289148
O        13.2361306624        5.6705980677        2.8160292786
O         5.6706057869       13.2361408816        6.7990042456
O        11.3539729836        3.7816924719        1.9923907074
O        13.2360944882       11.3543891266        9.2035625304
O         3.7817147104        5.6706063671        4.3956513710
O         5.6706229501        5.6728211959        6.7998820718
O        11.3541937039       11.3490496907        1.9912807345
O        13.2361246912        3.7751203054        9.2030541703
O         3.7816928534       13.2371645413        4.3968077676
O        11.3539002681        5.6727962298        0.4109863511
O         5.6705680046       11.3489927660        5.2206888819
O         3.7817254833        3.7752848928        7.6229355204
O        13.2360710341       13.2371908808        2.8144191443
O        13.2371774834       11.3491020571        5.2192357550
O         3.7753487377        5.6728065848        0.4112153151
O         5.6727987250       13.2372617031        2.8141131931
O        11.3489942902        3.7751742248        7.6241750563
O         3.7751718762       11.3489890118        1.9908459450
O        13.2372348637        5.6727991620        6.8009142432
O        11.3490982569       13.2371682437        4.3957912516
O         5.6728173159        3.7753573668        9.2038080925
O         3.7753221328        7.5661684540        1.9925161155
O        13.2372479766        9.4572132590        6.8005321899
O         7.5661973789        5.6705938692        4.3961069791
O         9.4572004326       11.3539738706        9.2036308159
O        13.2372138248        7.5661968585        5.2178824029
O         3.7752906603        9.4571971829        0.4117016732
O         9.4571963808        5.6706262402        2.8156548251
O         7.5661804771       11.3539017204        7.6222618678
O        11.3539938408        9.4572107551        0.4113963881
O         5.6705879284        7.5661776605        5.2189083808
O         5.6706323823        9.4571809925        6.7993629264
O        11.3538849224        7.5661904515        1.9927597959
O         9.4571738560        3.7753142219        9.2033216480
O         7.5662038162       13.2371835861        4.3971458490
O         7.5661664031        3.7753250398        7.6224880531
O         9.4572171967       13.2372578883        2.8144894341
O         7.5686500373        0.0026216369        1.9915075747
O         9.4637513327        1.8898343714        6.7983970045
O         0.0026598477        9.4638430733        4.3955600605
O         1.8898608238        7.5686018597        9.2018882971
O         9.4638373686        0.0026488000        5.2194598928
O         7.5686141377        1.8898429806        0.4131422496
O         1.8898356652        9.4637673551        2.8166270269
O         0.0026291844        7.5686339649        7.6235062860
O         7.5685850246        3.7817239616        1.9918946633
O         9.4638591313       13.2361118808        6.7992951807
O        11.3490060353        9.4637274812        4.3946071871
O         5.6728072527        7.5686090169        9.2036396484
O         9.4636364445        3.7817255244        5.2191750051
O         7.5686192212       13.2361370944        0.4122450296
O         5.6727959641        9.4635930325        2.8149703588
O        11.3489677750        7.5686149064        7.6244177764
O         3.7817135497        7.5685955875        7.6231228010
O        13.2361309475        9.4638605079        2.8157230896
O        13.2361232275        7.5686272412        9.2027682073
O         3.7817335730        9.4636208510        4.3958481198
O         9.4635939962        5.6727985700        6.8000547634
O         7.5686262013       11.3489728385        1.9905919927
O         7.5686030124        5.6728121617        0.4113766165
O         9.4637209516       11.3489946935        5.2204133301
O         7.5686017085        7.5661795223        1.9923796336
O         9.4636487228        9.4571888111        6.7995800684
O         7.5661694136        9.4635531016        4.3962761640
O         9.4571881848        7.5686044321        9.2031375975
O         9.4635498780        7.5662012137        5.2187428936
O         7.5686007639        9.4571815171        0.4118896044
O         9.4571869122        9.4636332859        2.8154489060
O         7.5661837464        7.5685918576        7.6226472564
     192
 i =        2, E =     -5782.0956111207
Ti         0.0005927844        0.0005763552        0.0000059068
Ti         1.8905124748        1.8905231650        4.8075077271
Ti         0.0005896873        1.8904274674        2.4016134234
Ti         1.8904392245        0.0005916450        7.2134040576
Ti         0.0005971926        3.7785996949        0.0027880357
Ti         1.8904591850       13.2380425567        4.8053423638
Ti        11.3482452337        1.8905044936        2.4036908208
Ti         5.6728709149        0.0006032040        7.2153237473
Ti         1.8905982666        3.7786692507        7.2106042255
Ti         0.0005956087       13.2380123131        2.4037882952
Ti         5.6729073226        1.8906562258        4.8055976550
Ti        11.3482952035        0.0005745314       -0.0020953515
Ti         3.7786094115        0.0005998494       -0.0027816542
Ti        13.2380360827        1.8904544961        4.8096735265
Ti        13.2380247638        0.0005920125        7.2112471970
Ti         3.7786720649        1.8906094832        2.4044125491
Ti         1.8906486762        5.6729154494        4.8094133184
Ti         0.0005792030       11.3483030485        0.0020825797
Ti         0.0005949895        5.6728751615        2.3996813786
Ti         1.8905143519       11.3482472579        7.2113153949
Ti         0.0005995978        7.5662035883        0.0040376521
Ti         1.8906273717        9.4602839164        4.8080903856
Ti         7.5661998776        1.8906446833        2.4056351758
Ti         9.4603115600        0.0006047194        7.2139849411
Ti         1.8906463935        7.5661923878        7.2093896659
Ti         0.0006103056        9.4603115754        2.4010432137
Ti         9.4602776980        1.8906246776        4.8069278318
Ti         7.5661879289        0.0005978927       -0.0040272295
Ti         3.7787242473        3.7787308271        0.0000049244
Ti        13.2380360622       13.2380479979        4.8075226092
Ti        11.3481254681        5.6728955395        2.4017803452
Ti         5.6729019868       11.3481167021        7.2132399239
Ti        13.2380237852        3.7786275041        7.2084661766
Ti         3.7786310384       13.2380184646        2.4065665751
Ti         5.6729547513        5.6729645056        4.8075103597
Ti        11.3482375390       11.3482473926        0.0000027613
Ti        11.3483189457       13.2380288742        2.4058657363
Ti         5.6729201268        3.7787515303        7.2124471234
Ti         3.7786563318       11.3481526073       -0.0007112678
Ti        13.2380409442        5.6728879157        4.8116034964
Ti         5.6729023912       13.2380440029        4.8034271356
Ti        11.3481427996        3.7786482916        0.0007130017
Ti        13.2380351480       11.3482978035        7.2091554120
Ti         3.7787454269        5.6729295604        2.4025794115
Ti         3.7787399201        7.5661548277        0.0011504695
Ti        13.2380530983        9.4603300227        4.8102476405
Ti         7.5661506266        5.6729366247        2.4037167004
Ti         9.4602746796       11.3481535541        7.2119014840
Ti        13.2380369563        7.5662050547        7.2072139301
Ti         3.7787381606        9.4601950759        2.4038240534
Ti         9.4602030194        5.6729541873        4.8087533689
Ti         7.5661899354       11.3481199471       -0.0019406884
Ti        11.3481656102        9.4602680600        2.4031092050
Ti         5.6729376290        7.5661452439        7.2112867258
Ti         5.6729567883        9.4602125083        4.8062478005
Ti        11.3481143530        7.5661854515        0.0019310711
Ti         9.4601958398        3.7787288291        7.2111911719
Ti         7.5662146453       13.2380323855        2.4078068605
Ti         7.5661470200        3.7787352733       -0.0011550842
Ti         9.4603327668       13.2380579381        4.8047739728
Ti         7.5661350798        7.5661402698       -0.0000009907
Ti         9.4602395488        9.4602304303        4.8075126772
Ti         7.5661669397        9.4601895002        2.4049653357
Ti         9.4601849051        7.5661598294        7.2100531077
O         0.0010845079        0.0017803949        1.9931396924
O         1.8840578792        1.8890705414        6.7981498757
O         0.0018245404        1.8839597461        4.3961515350
O         1.8890086615        0.0011357928        9.2026285397
O         1.8839639232        0.0018311238        5.2188702537
O         0.0011336722        1.8890058929        0.4123900742
O         1.8890607072        1.8840497089        2.8168732975
O         0.0017797376        0.0010867372        7.6218855537
O         0.0011579829        3.7787709469        1.9936482260
O         1.8839793257       13.2367657020        6.7998841427
O        11.3496536419        1.8840463217        4.3943369358
O         5.6715765457        0.0011899780        9.2056972954
O         1.8840491666        3.7788450189        5.2182595256
O         0.0010943055       13.2367982652        0.4106365315
O         5.6716225508        1.8841007250        2.8137153870
O        11.3496986574        0.0011238068        7.6237044667
O         3.7787615787        0.0011569418        7.6213710752
O        13.2367641814        1.8839744085        2.8151472239
O        13.2367981646        0.0010898204        9.2043827747
O         3.7788478636        1.8840598988        4.3967566002
O         1.8841129889        5.6715954671        6.8013121526
O         0.0011267466       11.3497002347        1.9913111793
O         0.0011897104        5.6715960032        0.4093230547
O         1.8840486518       11.3496554637        5.2206759413
O         0.0011830820        7.5675299922        1.9943969071
O         1.8840667848        9.4600978602        6.8004486840
O         7.5675157749        1.8841028765        4.3975159603
O         9.4601676717        0.0011596407        9.2048596218
O         1.8840918161        7.5675133795        5.2175142297
O         0.0011609531        9.4601452040        0.4101684662
O         9.4600824283        1.8840583914        2.8145741554
O         7.5675440295        0.0011830355        7.6206346736
O         3.7679927067        0.0019052413        1.9920839355
O        13.2372917865        1.8890020831        6.7988599902
O         0.0019425704        5.6654185971        4.3950911415
O         1.8890535356       11.3544463541        9.2019313420
O        13.2373211114        0.0017831092        5.2181192888
O         3.7682418704        1.8891875133        0.4133302586
O         1.8892331588        5.6655412688        2.8177314602
O         0.0018141560       11.3545275320        7.6225901826
O        11.3544461020        1.8890594738        0.4130772768
O         5.6653868569        0.0019387837        5.2199148460
O         5.6655536320        1.8892207215        6.7972801846
O        11.3545223520        0.0018205342        1.9924341946
O         1.8891783159        3.7682407872        9.2016879456
O         0.0017830555       13.2373183017        4.3968938056
O         0.0019006634        3.7679784444        7.6229345499
O         1.8890046410       13.2373092619        2.8161566483
O         3.7684351779        3.7789673912        1.9929889521
O        13.2373331760       13.2368127681        6.8006132179
O        11.3494966357        5.6654851977        4.3934603696
O         5.6716040843       11.3544079058        9.2050912269
O        13.2372499205        3.7787777507        5.2176218196
O         3.7680019108       13.2366878441        0.4116948358
O         5.6716601695        5.6655673931        2.8139888031
O        11.3496661183       11.3544521144        7.6244017445
O        11.3545175130       13.2367561619        0.4113445087
O         5.6654928064        3.7790425154        5.2187009112
O         3.7788416925       11.3544559482        7.6219900144
O        13.2366552900        5.6654686289        2.8161927033
O         5.6654879711       13.2366734349        6.7988311434
O        11.3544460406        3.7788265295        1.9930331934
O        13.2367663040       11.3545152895        9.2036727658
O         3.7790222932        5.6655188179        4.3963269674
O         5.6655690743        5.6716787670        6.8010389452
O        11.3544406829       11.3496640042        1.9906253142
O        13.2366934039        3.7680212888        9.2033271826
O         3.7787670721       13.2372397451        4.3974015256
O        11.3544147264        5.6715966640        0.4099355847
O         5.6654493091       11.3495039347        5.2215662087
O         3.7789882763        3.7684179753        7.6220451572
O        13.2368079479       13.2373342638        2.8144091541
O        13.2372777323       11.3496989055        5.2199533490
O         3.7685805802        5.6716407341        0.4099269088
O         5.6715989762       13.2372543713        2.8130899999
O        11.3495466093        3.7682016131        7.6246575109
O         3.7682067931       11.3495533530        1.9903700518
O        13.2372422218        5.6715891269        6.8019353771
O        11.3497062926       13.2372725031        4.3950675646
O         5.6716612732        3.7685829707        9.2050980565
O         3.7685475341        7.5674625795        1.9937835149
O        13.2372705020        9.4601627862        6.8010900172
O         7.5674759365        5.6655042709        4.3972373501
O         9.4600871194       11.3544504424        9.2042226469
O        13.2372329451        7.5675348159        5.2168859566
O         3.7684256458        9.4599566071        0.4108512258
O         9.4599079793        5.6655539550        2.8150221107
O         7.5675083510       11.3544188127        7.6212343497
O        11.3544628401        9.4601012293        0.4107986408
O         5.6654950908        7.5674471302        5.2177813274
O         5.6655705822        9.4598964261        6.7999889010
O        11.3544132002        7.5675188919        1.9937836114
O         9.4599397400        3.7684389242        9.2041657665
O         7.5675399320       13.2372200595        4.3981440756
O         7.5674501699        3.7685440911        7.6212238165
O         9.4601650895       13.2372816676        2.8139385608
O         7.5742564101        0.0019335567        1.9913609010
O         9.4704885381        1.8891838830        6.7979575101
O         0.0019087458        9.4707022460        4.3958603377
O         1.8892354738        7.5741433693        9.2010597210
O         9.4706976723        0.0019039332        5.2191593357
O         7.5741586681        1.8892243066        0.4139597450
O         1.8891852215        9.4704964766        2.8170663504
O         0.0019420000        7.5742297996        7.6236532708
O         7.5741039637        3.7790338648        1.9925862832
O         9.4707203396       13.2366941918        6.7995858616
O        11.3495503021        9.4704709020        4.3941379127
O         5.6716542626        7.5741281864        9.2048009369
O         9.4702702746        3.7789692597        5.2182762839
O         7.5742051963       13.2366562001        0.4124030702
O         5.6716366754        9.4701515778        2.8136705827
O        11.3494914392        7.5741603811        7.6252828980
O         3.7790249164        7.5741273939        7.6224284554
O        13.2367045318        9.4707269780        2.8154306007
O        13.2366479290        7.5742206629        9.2026033326
O         3.7789725187        9.4702574146        4.3967447759
O         9.4701493969        5.6716421608        6.8013432106
O         7.5741767144       11.3494969014        1.9897303735
O         7.5741156688        5.6716716782        0.4102201400
O         9.4704640514       11.3495321959        5.2208764631
O         7.5741066095        7.5674558866        1.9935062606
O         9.4702984305        9.4599747026        6.8004314042
O         7.5674471305        9.4701236681        4.3975416820
O         9.4599015956        7.5741370999        9.2037698942
O         9.4701136798        7.5674870136        5.2174789560
O         7.5741267768        9.4598891854        0.4112578397
O         9.4599651666        9.4702919806        2.8146003315
O         7.5674667737        7.5740954993        7.6215196001
     192
 i =        3, E =     -5782.0959198946
Ti         0.0006838878        0.0006702421        0.0000028748
Ti         1.8889143691        1.8889231978        4.8075063350
Ti         0.0007128580        1.8888403978        2.4020193767
Ti         1.8888565881        0.0007109576        7.2130019848
Ti         0.0007554929        3.7757467412        0.0028869475
Ti         1.8888754629       13.2378361411        4.8057435460
Ti        11.3497697162        1.8889052996        2.4036964558
Ti         5.6712650641        0.0007925906        7.2159604803
Ti         1.8889939448        3.7758288919        7.2100677913
Ti         0.0006884110       13.2378379615        2.4037905518
Ti         5.6712997462        1.8890944458        4.8045165826
Ti        11.3498043000        0.0006965324       -0.0016954928
Ti         3.7757555818        0.0007566613       -0.0028799057
Ti        13.2378311267        1.8888681846        4.8092706905
Ti        13.2378528063        0.0006860088        7.2112484022
Ti         3.7758344467        1.8890042045        2.4049490718
Ti         1.8890883094        5.6713087797        4.8104945477
Ti         0.0007007520       11.3498156747        0.0016790702
Ti         0.0007871921        5.6712682429        2.3990464988
Ti         1.8889175534       11.3497690653        7.2113163308
Ti         0.0007917576        7.5679469121        0.0046386337
Ti         1.8890222428        9.4631033175        4.8085965052
Ti         7.5679410493        1.8890828168        2.4066805189
Ti         9.4631447448        0.0007574034        7.2140535999
Ti         1.8890833483        7.5679312532        7.2083414683
Ti         0.0007589296        9.4631478437        2.4009754710
Ti         9.4630977809        1.8890229876        4.8064217471
Ti         7.5679334455        0.0007890528       -0.0046291866
Ti         3.7759341825        3.7759382243        0.0000019028
Ti        13.2378654741       13.2378754830        4.8075227849
Ti        11.3496126920        5.6712939891        2.4007009021
Ti         5.6712986918       11.3496024414        7.2143164012
Ti        13.2377783495        3.7757704601        7.2083671719
Ti         3.7757770228       13.2377746091        2.4066633564
Ti         5.6713701357        5.6713799877        4.8075087794
Ti        11.3497610683       11.3497688864        0.0000010186
Ti        11.3498267814       13.2378260746        2.4054672570
Ti         5.6713164801        3.7760046236        7.2129500895
Ti         3.7758155215       11.3496827783       -0.0012421046
Ti        13.2377659979        5.6712783375        4.8122363657
Ti         5.6712901667       13.2377694054        4.8027891110
Ti        11.3496731497        3.7758093740        0.0012431596
Ti        13.2378307018       11.3498066092        7.2095590939
Ti         3.7759978454        5.6713248290        2.4020727235
Ti         3.7759927260        7.5678951698        0.0016286854
Ti        13.2378102066        9.4631670757        4.8103151787
Ti         7.5678651883        5.6713580680        2.4036891238
Ti         9.4630926630       11.3496806317        7.2124023762
Ti        13.2377617404        7.5679504534        7.2066118483
Ti         3.7759428664        9.4629665538        2.4038531303
Ti         9.4629244458        5.6713450255        4.8092947882
Ti         7.5679265336       11.3496112032       -0.0029841796
Ti        11.3496897890        9.4630867650        2.4026061910
Ti         5.6713580922        7.5678608174        7.2113138816
Ti         5.6713481848        9.4629349938        4.8057092076
Ti        11.3496063199        7.5679227082        0.0029745390
Ti         9.4629645826        3.7759376549        7.2111590140
Ti         7.5679620615       13.2377587049        2.4084100792
Ti         7.5678874960        3.7759919495       -0.0016327575
Ti         9.4631667501       13.2378209083        4.8047049479
Ti         7.5678509959        7.5678573681       -0.0000007570
Ti         9.4630085218        9.4630043130        4.8075097993
Ti         7.5679112711        9.4629118002        2.4054766248
Ti         9.4629097153        7.5679016599        7.2095400771
O         0.0014020445        0.0016856957        1.9926507659
O         1.8845622611        1.8876483860        6.7984226287
O         0.0017004116        1.8844472215        4.3969632591
O         1.8875820422        0.0014618090        9.2016568645
O         1.8844487263        0.0017015860        5.2180611674
O         0.0014597158        1.8875833093        0.4133682051
O         1.8876457742        1.8845648979        2.8165959279
O         0.0016875725        0.0014010693        7.6223679839
O         0.0014584911        3.7767060087        1.9922502646
O         1.8844462536       13.2368153346        6.8007191590
O        11.3510086458        1.8845649792        4.3946806814
O         5.6708822257        0.0014454297        9.2053785384
O         1.8845565927        3.7767529024        5.2183669913
O         0.0013989039       13.2368240622        0.4110975784
O         5.6709256285        1.8845418850        2.8127655710
O        11.3510683535        0.0014614815        7.6246146649
O         3.7767030207        0.0014599329        7.6227652213
O        13.2368156560        1.8844462057        2.8143034411
O        13.2368228061        0.0013976044        9.2039199027
O         3.7767564698        1.8845627226        4.3966456451
O         1.8845405308        5.6708989146        6.8022595005
O         0.0014642414       11.3510714169        1.9904004013