     192
 i =        1, E =     -5782.0950672671
Ti         0.0006647440        0.0006645779        0.0000001230
Ti        -0.0007135800       -0.0007089970        0.0000021016
Ti         0.0006658809       -0.0007356550       -0.0005893175
Ti        -0.0007365270        0.0006687065        0.0005923591
Ti         0.0006701292       -0.0011942088        0.0002856192
Ti        -0.0007371636       -0.0007132829       -0.0005893957
Ti         0.0006999502       -0.0007172366        0.0000024032
Ti        -0.0002399960        0.0006753271        0.0004152731
Ti        -0.0006869932       -0.0011843347        0.0002965234
Ti         0.0006658193       -0.0007104856        0.0000004494
Ti        -0.0002465678       -0.0006691957        0.0001764928
Ti         0.0007204980        0.0006653461       -0.0005874802
Ti        -0.0011968749        0.0006708045       -0.0002831891
Ti        -0.0007101219       -0.0007340943        0.0005936874
Ti        -0.0007085498        0.0006661628       -0.0000028951
Ti        -0.0011838071       -0.0006922711       -0.0002973457
Ti        -0.0006719481       -0.0002431224       -0.0001737314
Ti         0.0006663283        0.0007193536        0.0005877973
Ti         0.0006748918       -0.0002402672       -0.0004122852
Ti        -0.0007211128        0.0006984367        0.0000000915
Ti         0.0006736197        0.0002826787        0.0004134915
Ti        -0.0006933333        0.0011975989       -0.0003001832
Ti         0.0002880764       -0.0006756633       -0.0001751046
Ti         0.0012056915        0.0006688614        0.0002820621
Ti        -0.0006744108        0.0002866803        0.0001726391
Ti         0.0006705151        0.0012068006       -0.0002795381
Ti         0.0012001940       -0.0006865392        0.0003014248
Ti         0.0002859629        0.0006725526       -0.0004145936
Ti        -0.0011678959       -0.0011656534       -0.0000026561
Ti        -0.0007045404       -0.0007071949        0.0000044428
Ti         0.0006545692       -0.0002418710        0.0001730181
Ti        -0.0002433737        0.0006543814       -0.0001728132
Ti        -0.0007116237       -0.0012012100       -0.0002884747
Ti        -0.0011963984       -0.0007123015        0.0002857957
Ti        -0.0002447393       -0.0002435880       -0.0000015446
Ti         0.0007011273        0.0006981519       -0.0000001371
Ti         0.0007188396       -0.0007085563        0.0005901052
Ti        -0.0002472031       -0.0011561839        0.0001133503
Ti        -0.0011869454        0.0006699572        0.0002994407
Ti        -0.0007113608       -0.0002379232        0.0004126251
Ti        -0.0002405769       -0.0007125924       -0.0004147728
Ti         0.0006725359       -0.0011838609       -0.0002963673
Ti        -0.0007073306        0.0007223708       -0.0005932720
Ti        -0.0011562062       -0.0002463175       -0.0001143193
Ti        -0.0011577487        0.0002876619        0.0001149018
Ti        -0.0007103323        0.0012087323        0.0002821467
Ti         0.0002901325       -0.0002421035        0.0000020088
Ti         0.0011969545        0.0006734494       -0.0003045410
Ti        -0.0007133631        0.0002865044       -0.0004183975
Ti        -0.0011667253        0.0011802659        0.0000004736
Ti         0.0011670029       -0.0002424141        0.0001193826
Ti         0.0002863972        0.0006540909        0.0001715661
Ti         0.0006707143        0.0011923449        0.0003021397
Ti        -0.0002439535        0.0002890687       -0.0000016743
Ti        -0.0002388426        0.0011646039       -0.0001175403
Ti         0.0006544380        0.0002877784       -0.0001692850
Ti         0.0011766789       -0.0011637230       -0.0000050648
Ti         0.0002877777       -0.0007110532        0.0004167662
Ti         0.0002881017       -0.0011536150       -0.0001160332
Ti         0.0012091171       -0.0007128465       -0.0002810784
Ti         0.0002889503        0.0002877090        0.0000010151
Ti         0.0011781364        0.0011773513       -0.0000031404
Ti         0.0002941655        0.0011607579        0.0001233677
Ti         0.0011650365        0.0002887343       -0.0001231539
O        -0.0001352918        0.0000373905       -0.0001519289
O         0.0004273747        0.0002810898        0.0001031659
O         0.0000592302        0.0004604991        0.0001991073
O         0.0003042762       -0.0001282318       -0.0002186356
O         0.0004653344        0.0000534820       -0.0002005712
O        -0.0001279376        0.0003046877        0.0002214623
O         0.0002863262        0.0004305349       -0.0001045840
O         0.0000328073       -0.0001381414        0.0001531961
O        -0.0001218210       -0.0006404777       -0.0001917265
O         0.0004647874       -0.0000675156        0.0002031765
O        -0.0003053097        0.0004359896        0.0001118413
O        -0.0001350868       -0.0001160534       -0.0003592797
O         0.0003785379       -0.0006379089       -0.0001188088
O        -0.0001409234       -0.0000458108        0.0001490508
O        -0.0001361675        0.0003696639        0.0000574844
O        -0.0003231582       -0.0001261464        0.0002156184
O        -0.0006387365       -0.0001219777        0.0001881853
O        -0.0000726073        0.0004624340       -0.0002058768
O        -0.0000421523       -0.0001409376       -0.0001543933
O        -0.0006386764        0.0003785679        0.0001150241
O         0.0003612150       -0.0001359676       -0.0000571216
O        -0.0001266794       -0.0003182392       -0.0002128546
O        -0.0001195969       -0.0001373113        0.0003599034
O         0.0004420427       -0.0003106491       -0.0001119240
O        -0.0001167431        0.0001558178       -0.0003575901
O         0.0003840395        0.0006317582        0.0001240783
O         0.0001524079        0.0003683443       -0.0000541317
O         0.0006360064       -0.0001219954       -0.0001851399
O         0.0003723993        0.0001532937        0.0000542187
O        -0.0001205272        0.0006336189        0.0001843679
O         0.0006316859        0.0003836475       -0.0001254891
O         0.0001522405       -0.0001164308        0.0003556615
O        -0.0006138303        0.0000960517        0.0002664252
O         0.0001439771        0.0003015229       -0.0002228352
O         0.0001165797       -0.0006157046        0.0002850921
O         0.0002877227       -0.0004477022        0.0000973045
O         0.0001642771        0.0000324628        0.0001578099
O        -0.0006007701        0.0002953611       -0.0001701273
O         0.0003184423       -0.0006063111       -0.0002027577
O         0.0000616583       -0.0004846454       -0.0001920008
O        -0.0004522755        0.0002859749       -0.0000985235
O        -0.0006157314        0.0001119976       -0.0002839400
O        -0.0006049101        0.0003193060        0.0002046093
O        -0.0004872876        0.0000614166        0.0001904352
O         0.0002964923       -0.0006001427        0.0001714195
O         0.0000334374        0.0001675116       -0.0001635998
O         0.0000972705       -0.0006110881       -0.0002669391
O         0.0003038568        0.0001405784        0.0002270233
O        -0.0005903484       -0.0006144783        0.0002028008
O         0.0001577094       -0.0000456753       -0.0001515736
O        -0.0003352816       -0.0006075335        0.0002102690
O        -0.0001360030       -0.0003800767       -0.0000594959
O         0.0001368873       -0.0006387613        0.0001950257
O        -0.0006123871       -0.0001080937       -0.0002697664
O        -0.0001235071       -0.0006019840       -0.0001443090
O        -0.0003067030       -0.0004574517       -0.0001066177
O        -0.0004863924       -0.0000685671       -0.0001977363
O        -0.0006068925       -0.0005923792       -0.0002876886
O        -0.0006386820       -0.0003949200       -0.0001140214
O        -0.0001273152       -0.0006128889       -0.0002882492
O        -0.0006115321       -0.0001269915        0.0002845706
O        -0.0003955104       -0.0006383274        0.0001135403
O        -0.0000699248       -0.0004843700        0.0001976981
O        -0.0005896111       -0.0006062803        0.0002833418
O        -0.0006017920       -0.0001242127        0.0001446738
O        -0.0004495005       -0.0003042989        0.0001088786
O        -0.0001065408       -0.0006149704        0.0002684663
O        -0.0006434221        0.0001461931       -0.0001962215
O        -0.0003831744       -0.0001360836        0.0000590601
O        -0.0006087762       -0.0003429607       -0.0002085279
O        -0.0006135858       -0.0005893118       -0.0002012825
O        -0.0000489715        0.0001553252        0.0001557155
O         0.0001489744       -0.0003271985        0.0002195066
O        -0.0005776966       -0.0001296222       -0.0000292498
O        -0.0001354045        0.0001253732        0.0003598779
O        -0.0003150065       -0.0005984337       -0.0001762903
O        -0.0005970522       -0.0003100823        0.0001781486
O         0.0001297901       -0.0001376508       -0.0003599695
O        -0.0003241830        0.0001503506       -0.0002215950
O        -0.0001286354       -0.0005793999        0.0000303379
O        -0.0005768124        0.0001487470        0.0000337287
O         0.0001312637        0.0006368061       -0.0001858234
O         0.0001357613       -0.0006056004        0.0001446402
O         0.0006310748       -0.0003949971        0.0001207949
O         0.0001332822        0.0001515645        0.0003588248
O        -0.0005894233        0.0006042483       -0.0002089111
O         0.0005791088       -0.0006052493       -0.0002913079
O         0.0001537716       -0.0003828628        0.0000583847
O        -0.0003977157        0.0006313928       -0.0001228624
O        -0.0006056953        0.0001382141       -0.0001438430
O        -0.0006039791        0.0005843888        0.0002901756
O        -0.0003797328        0.0001536233       -0.0000597729
O         0.0006090631       -0.0005928957        0.0002082372
O         0.0001500273        0.0001383913       -0.0003595163
O         0.0001469035       -0.0005780832       -0.0000300455
O         0.0006350855        0.0001307375        0.0001868079
O         0.0006649493        0.0001181365        0.0002859462
O         0.0005568026        0.0002942521        0.0001673824
O         0.0000849120        0.0005698044        0.0002636292
O         0.0003153883        0.0006576831        0.0002054014
O         0.0005703884        0.0000872008       -0.0002636625
O         0.0006572580        0.0003217094       -0.0002077394
O         0.0002964657        0.0005542570       -0.0001675358
O         0.0001168590        0.0006644015       -0.0002831672
O         0.0006550091       -0.0005923383        0.0002863330
O         0.0005689528       -0.0000985948        0.0002687195
O        -0.0003183586        0.0005596199        0.0001751549
O        -0.0001234595        0.0006531628        0.0001426479
O         0.0005483495       -0.0006213424       -0.0001970623
O         0.0006638628       -0.0001305658       -0.0002856068
O        -0.0001289974        0.0005391267       -0.0000259036
O        -0.0003327658        0.0006573472       -0.0002071266
O        -0.0005878810        0.0006563807       -0.0002865755
O        -0.0001054116        0.0005697311       -0.0002688104
O        -0.0001238979        0.0006644972        0.0002863077
O        -0.0006231728        0.0005499520        0.0001972970
O         0.0005385573       -0.0001278116        0.0000229439
O         0.0006573421       -0.0003321383        0.0002088199
O         0.0006525078       -0.0001221430       -0.0001416056
O         0.0005600189       -0.0003173111       -0.0001745169
O         0.0006513064        0.0001398179        0.0001372436
O         0.0005500964        0.0006129411        0.0002034405
O         0.0001423109        0.0005440962        0.0000251721
O         0.0005812490        0.0006558653        0.0002880898
O         0.0005431876        0.0001407289       -0.0000237302
O         0.0006550229        0.0005821769       -0.0002895382
O         0.0006096588        0.0005527448       -0.0002024361
O         0.0001392501        0.0006518541       -0.0001381482
     192
 i =        2, E =     -5782.0956111207
Ti         0.0000621556        0.0000650949       -0.0000020590
Ti        -0.0005344080       -0.0005357488        0.0000002976
Ti         0.0000623590       -0.0005337163        0.0004984981
Ti        -0.0005370426        0.0000632932       -0.0004983352
Ti         0.0000668673       -0.0010725687        0.0000294173
Ti        -0.0005377214       -0.0000760358        0.0004891468
Ti         0.0005040742       -0.0005380650       -0.0000165325
Ti        -0.0006893479        0.0000619544       -0.0000709091
Ti        -0.0005345610       -0.0010711421       -0.0005253392
Ti         0.0000633372       -0.0000766290        0.0000090386
Ti        -0.0006826344       -0.0005439597       -0.0004394173
Ti         0.0005062586        0.0000635243        0.0005202775
Ti        -0.0010770374        0.0000662189       -0.0000268101
Ti        -0.0000775473       -0.0005366405       -0.0004863950
Ti        -0.0000772975        0.0000653428       -0.0000091774
Ti        -0.0010701663       -0.0005386465        0.0005285358
Ti        -0.0005455151       -0.0006842992        0.0004424437
Ti         0.0000634177        0.0005035131       -0.0005170744
Ti         0.0000622123       -0.0006909163        0.0000745569
Ti        -0.0005377501        0.0005044465        0.0000216670
Ti         0.0000606292        0.0007489227       -0.0000748459
Ti        -0.0005363962        0.0010514987        0.0005171819
Ti         0.0007384305       -0.0005453037        0.0004404765
Ti         0.0010591726        0.0000645738        0.0000176573
Ti        -0.0005462652        0.0007385665       -0.0004438158
Ti         0.0000653279        0.0010586761       -0.0000187264
Ti         0.0010538023       -0.0005367425       -0.0005158036
Ti         0.0007531633        0.0000611306        0.0000693923
Ti        -0.0010582093       -0.0010604707       -0.0000022682
Ti        -0.0000771711       -0.0000806802       -0.0000012379
Ti         0.0005130258       -0.0006813430       -0.0004590304
Ti        -0.0006828414        0.0005140611        0.0004567263
Ti        -0.0000814768       -0.0010812607       -0.0000402579
Ti        -0.0010799170       -0.0000782692        0.0000385525
Ti        -0.0006776812       -0.0006804667       -0.0000023831
Ti         0.0005061882        0.0005030627       -0.0000018873
Ti         0.0005037227       -0.0000752271       -0.0005060354
Ti        -0.0006737758       -0.0010661374       -0.0000686722
Ti        -0.0010713247        0.0005054629       -0.0005450264
Ti        -0.0000781484       -0.0006913799       -0.0000683169
Ti        -0.0006947475       -0.0000779470        0.0000650849
Ti         0.0005048015       -0.0010685248        0.0005428865
Ti        -0.0000772704        0.0005074017        0.0005063932
Ti        -0.0010650348       -0.0006762753        0.0000652892
Ti        -0.0010637345        0.0007328142       -0.0000645966
Ti        -0.0000824969        0.0010583038        0.0000261545
Ti         0.0007348110       -0.0006737930        0.0000026794
Ti         0.0010537143        0.0005058101        0.0005342950
Ti        -0.0000793686        0.0007520662        0.0000641908
Ti        -0.0010623849        0.0010452616        0.0000105863
Ti         0.0010479154       -0.0006767975       -0.0000503628
Ti         0.0007384044        0.0005118217       -0.0004581650
Ti         0.0005041871        0.0010545164       -0.0005331696
Ti        -0.0006751157        0.0007364640        0.0000022890
Ti        -0.0006795004        0.0010455162        0.0000580904
Ti         0.0005135678        0.0007401184        0.0004603020
Ti         0.0010429319       -0.0010585990       -0.0000101183
Ti         0.0007518243       -0.0000785966       -0.0000639791
Ti         0.0007329938       -0.0010624154        0.0000652073
Ti         0.0010592139       -0.0000861623       -0.0000257082
Ti         0.0007359284        0.0007350765       -0.0000003120
Ti         0.0010370543        0.0010406460       -0.0000029804
Ti         0.0007324813        0.0010466956       -0.0000509386
Ti         0.0010492092        0.0007325571        0.0000506040
O         0.0000261514        0.0000224201       -0.0002494927
O         0.0003094888        0.0000035822        0.0004072320
O         0.0000027246        0.0003070929        0.0001074528
O         0.0000174632        0.0000247547        0.0000704128
O         0.0003059996       -0.0000002089       -0.0001075557
O         0.0000248105        0.0000183812       -0.0000690109
O         0.0000087816        0.0003112031       -0.0004089735
O         0.0000250678        0.0000258466        0.0002487828
O         0.0000189485        0.0002323239       -0.0006082477
O         0.0003026116        0.0000233357        0.0001173786
O        -0.0000011056        0.0003113177        0.0004356601
O         0.0000948644        0.0000097188       -0.0005458515
O         0.0003152447        0.0002115934        0.0002698620
O         0.0000242952        0.0000018151        0.0002402717
O         0.0000880289        0.0003036402        0.0002147230
O        -0.0000074753        0.0000268519       -0.0000965690
O         0.0002381413        0.0000194129        0.0006069858
O         0.0000226848        0.0003038335       -0.0001221813
O         0.0000042566        0.0000249650       -0.0002397188
O         0.0002096302        0.0003141099       -0.0002709292
O         0.0003018849        0.0000948302       -0.0002171057
O         0.0000267786       -0.0000085615        0.0000970309
O         0.0000092069        0.0000888135        0.0005450313
O         0.0003107786        0.0000001032       -0.0004352163
O         0.0000108231       -0.0001011600       -0.0005499747
O         0.0003122143       -0.0002314536       -0.0002567831
O        -0.0001001980        0.0003039935       -0.0002198697
O        -0.0002571003        0.0000181428       -0.0005964893
O         0.0003059299       -0.0000988012        0.0002194101
O         0.0000188401       -0.0002469293        0.0005956065
O        -0.0002250851        0.0003143728        0.0002563091
O        -0.0001071367        0.0000109395        0.0005490918
O         0.0005473775       -0.0000316489        0.0001645346
O        -0.0000113270        0.0000227001        0.0000688459
O        -0.0000313338       -0.0005569083        0.0003030224
O         0.0000103629       -0.0002881918        0.0003998885
O        -0.0000092712        0.0000256875        0.0002543684
O         0.0005285958       -0.0000202545       -0.0004379564
O         0.0000195988       -0.0005411256       -0.0005833635
O         0.0000082171       -0.0002822732       -0.0000991967
O        -0.0002877313        0.0000059652       -0.0003989218
O        -0.0005570095       -0.0000276856       -0.0003013210
O        -0.0005405178        0.0000265293        0.0005836533
O        -0.0002810027        0.0000032851        0.0000956128
O        -0.0000158255        0.0005289870        0.0004386842
O         0.0000243193       -0.0000088693       -0.0002527200
O        -0.0000290236        0.0005495904       -0.0001650648
O         0.0000216655       -0.0000146708       -0.0000681690
O         0.0004975879        0.0001898225       -0.0002858586
O        -0.0000115448       -0.0000031057       -0.0002392347
O        -0.0000124159       -0.0005402787        0.0006119080
O         0.0000900899       -0.0002843881       -0.0002228998
O        -0.0000011984        0.0002329985        0.0006113167
O         0.0005454991        0.0000567561       -0.0001759420
O         0.0001088983       -0.0005229300        0.0000669709
O        -0.0000053793       -0.0002881148       -0.0004267240
O        -0.0002797184        0.0000262678       -0.0001080550
O        -0.0005349486        0.0002328924        0.0001118410
O         0.0002121226       -0.0002938626        0.0002777635
O         0.0000571517       -0.0005569416       -0.0003124610
O        -0.0005559827        0.0000480619        0.0003114841
O        -0.0002921898        0.0002162265       -0.0002783825
O         0.0000201360       -0.0002795698        0.0001097292
O         0.0002394125       -0.0005348022       -0.0001129334
O        -0.0005233356        0.0001030343       -0.0000661971
O        -0.0002860221       -0.0000027975        0.0004262163
O         0.0000528577        0.0005414781        0.0001762361
O         0.0002378558        0.0000009792       -0.0006121914
O        -0.0002856301        0.0000925276        0.0002220800
O        -0.0005406453       -0.0000168073       -0.0006127386
O         0.0001813514        0.0005007914        0.0002850633
O        -0.0000003927       -0.0000119487        0.0002385277
O        -0.0000078458       -0.0000072413       -0.0000927089
O         0.0004773449        0.0000916731        0.0002610467
O         0.0000925771        0.0000013644        0.0005456311
O         0.0000201189        0.0005352083       -0.0004663586
O         0.0005349849        0.0000186740        0.0004663868
O         0.0000038114        0.0000923351       -0.0005452812
O        -0.0000097431       -0.0000072009        0.0000940554
O         0.0000853902        0.0004767144       -0.0002603415
O         0.0004828459       -0.0000972826       -0.0002633292
O        -0.0000049931       -0.0002536285       -0.0005962203
O        -0.0001244820       -0.0005236205       -0.0000715861
O        -0.0002286293       -0.0002928350       -0.0002628359
O         0.0000057623       -0.0001038746        0.0005500165
O         0.0004988251       -0.0002033385        0.0002690523
O        -0.0002550300       -0.0005351319        0.0000970482
O        -0.0000974845       -0.0002859073        0.0002279788
O        -0.0002953843       -0.0002336896        0.0002620753
O        -0.0005234516       -0.0001141957        0.0000699978
O        -0.0005342909       -0.0002500613       -0.0000973679
O        -0.0002843445       -0.0001012874       -0.0002281910
O        -0.0001976665        0.0004968667       -0.0002684550
O        -0.0001055067        0.0000081057       -0.0005516220
O        -0.0000934592        0.0004834645        0.0002657955
O        -0.0002523368       -0.0000075323        0.0005948876
O         0.0005484706       -0.0000271933        0.0003063110
O        -0.0005524242       -0.0000213167        0.0004272635
O        -0.0000307258       -0.0005666197        0.0001550567
O         0.0000166753        0.0005320975        0.0005859933
O        -0.0005656159       -0.0000287290       -0.0001544520
O         0.0005314936        0.0000223649       -0.0005849927
O        -0.0000199559       -0.0005541159       -0.0004282253
O        -0.0000302785        0.0005493591       -0.0003034950
O         0.0005256785        0.0002307948       -0.0001151131
O        -0.0005691145        0.0000550495        0.0001666364
O         0.0000238239       -0.0005489371        0.0004580866
O         0.0001075544        0.0005115434       -0.0000728978
O        -0.0005156187        0.0001883895        0.0002927516
O         0.0005498612        0.0000553068       -0.0003124615
O         0.0000933744       -0.0004967298        0.0002667587
O        -0.0000093673        0.0005319345       -0.0006107134
O         0.0002360080        0.0005247432        0.0001151008
O         0.0000503811       -0.0005709351       -0.0001664107
O         0.0000611028        0.0005494587        0.0003157578
O         0.0001858594       -0.0005139475       -0.0002945524
O        -0.0004966885        0.0000927286       -0.0002685205
O         0.0005318776       -0.0000112334        0.0006114016
O         0.0005119417        0.0001030168        0.0000710817
O        -0.0005473778        0.0000325443       -0.0004565367
O         0.0005122347       -0.0001178519       -0.0000793209
O        -0.0005198800       -0.0002069003       -0.0002771590
O        -0.0000923953       -0.0004918272       -0.0002709083
O        -0.0002516076        0.0005256390       -0.0000997181
O        -0.0004904934       -0.0001031205        0.0002708400
O         0.0005253403       -0.0002455532        0.0000986011
O        -0.0002035659       -0.0005189080        0.0002767232
O        -0.0001222111        0.0005130227        0.0000792743
     192
 i =        3, E =     -5782.0959198946
Ti         0.0000295315        0.0000316066       -0.0000009125
Ti        -0.0000726885       -0.0000735664        0.0000004537
Ti         0.0000222402       -0.0000626737        0.0005648813
Ti        -0.0000663897        0.0000228729       -0.0005668114
Ti         0.0000215804       -0.0000982655        0.0002371806
Ti        -0.0000656936       -0.0000123005        0.0005568269
Ti         0.0000693515       -0.0000738433       -0.0000283466
Ti        -0.0003936438        0.0000096452        0.0003370871
Ti        -0.0000782563       -0.0001093923       -0.0007917432
Ti         0.0000301246       -0.0000211109        0.0000079612
Ti        -0.0003948213       -0.0000971989       -0.0009044516
Ti         0.0000625867        0.0000231449        0.0005961748
Ti        -0.0001006513        0.0000214719       -0.0002347697
Ti        -0.0000136523       -0.0000645548       -0.0005544035
Ti        -0.0000219350        0.0000312462       -0.0000088391
Ti        -0.0001095092       -0.0000799459        0.0007932874
Ti        -0.0000981798       -0.0003965045        0.0009066906
Ti         0.0000230180        0.0000598669       -0.0005930203
Ti         0.0000098223       -0.0003952101       -0.0003354315
Ti        -0.0000746565        0.0000689496        0.0000297809
Ti         0.0000087182        0.0004084891        0.0003313356
Ti        -0.0000782702        0.0000853589        0.0007688181
Ti         0.0004064643       -0.0000963109        0.0009002594
Ti         0.0000778932        0.0000207507        0.0002126557
Ti        -0.0000974762        0.0004066545       -0.0009024513
Ti         0.0000219147        0.0000766649       -0.0002144576
Ti         0.0000867310       -0.0000794228       -0.0007679057
Ti         0.0004112589        0.0000096885       -0.0003348933
Ti        -0.0001105310       -0.0001117080       -0.0000007938
Ti        -0.0000224465       -0.0000241737       -0.0000008352
Ti         0.0000917972       -0.0003951249       -0.0009316526
Ti        -0.0003952281        0.0000924471        0.0009313644
Ti        -0.0000120407       -0.0001024491       -0.0002479577
Ti        -0.0001018485       -0.0000103228        0.0002468966
Ti        -0.0004110589       -0.0004124264       -0.0000018422
Ti         0.0000691557        0.0000682080       -0.0000006698
Ti         0.0000614238       -0.0000131875       -0.0005844513
Ti        -0.0003961683       -0.0001300610        0.0001445100
Ti        -0.0001084884        0.0000737183       -0.0008204463
Ti        -0.0000024252       -0.0003945567        0.0003440405
Ti        -0.0003968221       -0.0000025061       -0.0003451209
Ti         0.0000733316       -0.0001086311        0.0008194777
Ti        -0.0000137525        0.0000629286        0.0005831944
Ti        -0.0001291720       -0.0003981491       -0.0001464132
Ti        -0.0001270479        0.0004089945        0.0001401213
Ti        -0.0000144316        0.0000763899        0.0002222934
Ti         0.0004218217       -0.0004088886       -0.0000060088
Ti         0.0000873973        0.0000751146        0.0007976840
Ti        -0.0000033567        0.0004086080       -0.0003417042
Ti        -0.0001117191        0.0000918710        0.0000245733
Ti         0.0001104084       -0.0003970944        0.0001721467
Ti         0.0004069700        0.0000895432       -0.0009258980
Ti         0.0000743736        0.0000883131       -0.0007969326
Ti        -0.0004094056        0.0004231133        0.0000099412
Ti        -0.0003995749        0.0001083983       -0.0001688465
Ti         0.0000904996        0.0004082970        0.0009274455
Ti         0.0000904419       -0.0001106277       -0.0000223700
Ti         0.0004084234       -0.0000043795        0.0003409607
Ti         0.0004095904       -0.0001273546       -0.0001395609
Ti         0.0000780318       -0.0000165017       -0.0002206706
Ti         0.0004230699        0.0004229573       -0.0000010372
Ti         0.0000879953        0.0000894929       -0.0000006944
Ti         0.0004058016        0.0001095134        0.0001636581
Ti         0.0001100370        0.0004082286       -0.0001640779
O        -0.0000918424       -0.0002061846       -0.0000498683
O         0.0000190597        0.0000325622        0.0004233344
O        -0.0002157234        0.0000188304       -0.0001324171
O         0.0000590343       -0.0000931275        0.0004885581
O         0.0000187643       -0.0002160246        0.0001314516
O        -0.0000927815        0.0000575653       -0.0004894227
O         0.0000341473        0.0000178689       -0.0004232900
O        -0.0002046799       -0.0000917429        0.0000509098
O        -0.0000851089        0.0003265043       -0.0003871530
O         0.0000192711        0.0002421433       -0.0001326479
O        -0.0000218049        0.0000167757        0.0004395437
O         0.0002655288       -0.0000821197       -0.0003359503
O         0.0000359283        0.0003082600        0.0004882689
O        -0.0000911596        0.0002315201        0.0000523219
O         0.0002529621        0.0000440497        0.0004531166
O        -0.0000458897       -0.0000936203       -0.0005054679
O         0.0003292061       -0.0000856156        0.0003876143
O         0.0002418516        0.0000189975        0.0001318453
O         0.0002340141       -0.0000909585       -0.0000522389
O         0.0003071807        0.0000348614       -0.0004879084
O         0.0000455149        0.0002580269       -0.0004548182
O        -0.0000941444       -0.0000478653        0.0005059606