 DBCSR| CPU Multiplication driver                                           XSMM (U)
 DBCSR| Multrec recursion limit                                              512 (U)
 DBCSR| Multiplication stack size                                           1000 (D)
 DBCSR| Maximum elements for images                                    UNLIMITED (U)
 DBCSR| Multiplicative factor virtual images                                   1 (U)
 DBCSR| Use multiplication densification                                       T (D)
 DBCSR| Multiplication size stacks                                             3 (U)
 DBCSR| Use memory pool for CPU allocation                                     F (U)
 DBCSR| Number of 3D layers                                               SINGLE (U)
 DBCSR| Use MPI memory allocation                                              F (U)
 DBCSR| Use RMA algorithm                                                      F (U)
 DBCSR| Use Communication thread                                               T (U)
 DBCSR| Communication thread load                                             87 (D)
 DBCSR| MPI: My process id                                                     0
 DBCSR| MPI: Number of processes                                             128
 DBCSR| OMP: Current number of threads                                         1
 DBCSR| OMP: Max number of threads                                             1
 DBCSR| Split modifier for TAS multiplication algorithm                  1.0E+00 (U)


  **** **** ******  **  PROGRAM STARTED AT               2025-06-16 15:18:08.458
 ***** ** ***  *** **   PROGRAM STARTED ON                             nid002288
 **    ****   ******    PROGRAM STARTED BY                                cahart
 ***** **    ** ** **   PROGRAM PROCESS ID                                238162
  **** **  *******  **  PROGRAM STARTED IN /mnt/lustre/a2fs-work2/work/e05/e05/c
                                           ahart/postdoc2/work/group/tio2/anatas
                                           e/cell-441/geo-opt/mp-390/hole/from-n
                                           eutral/pbe-u-o/pbe

 CP2K| version string:                                       CP2K version 2024.3
 CP2K| source code revision number:                                  git:6712648
 CP2K| cp2kflags: omp libint fftw3 libxc libgrpp elpa parallel scalapack cosma x
 CP2K|            smm plumed2 spglib mkl sirius libvori libbqb libvdwxc hdf5
 CP2K| is freely available from                            https://www.cp2k.org/
 CP2K| Program compiled at                       Thu 12 Sep 2024 10:20:47 AM BST
 CP2K| Program compiled on                                                  ln04
 CP2K| Program compiled for                                                local
 CP2K| Data directory path    /mnt/lustre/a2fs-work1/work/y07/shared/apps/core/c
 CP2K| Input file name                                                 input.inp

 GLOBAL| Force Environment number                                              1
 GLOBAL| Basis set file name                                        BASIS_MOLOPT
 GLOBAL| Potential file name                                      GTH_POTENTIALS
 GLOBAL| MM Potential file name                                     MM_POTENTIAL
 GLOBAL| Coordinate file name                                         system.xyz
 GLOBAL| Method name                                                        CP2K
 GLOBAL| Project name                                                       tio2
 GLOBAL| Run type                                                        GEO_OPT
 GLOBAL| FFT library                                                       FFTW3
 GLOBAL| Diagonalization library                                            ELPA
 GLOBAL| DGEMM library                                                      BLAS
 GLOBAL| Minimum number of eigenvectors for ELPA usage                        16
 GLOBAL| Orthonormality check for eigenvectors                          DISABLED
 GLOBAL| Matrix multiplication library                                     COSMA
 GLOBAL| All-to-all communication in single precision                          F
 GLOBAL| FFTs using library dependent lengths                                  F
 GLOBAL| Grid backend                                                       AUTO
 GLOBAL| Global print level                                               MEDIUM
 GLOBAL| MPI I/O enabled                                                       T
 GLOBAL| Total number of message passing processes                           128
 GLOBAL| Number of threads for this process                                    1
 GLOBAL| This output is from process                                           0
 GLOBAL| Stack size for threads created by OpenMP (OMP_STACKSIZE)        default
 GLOBAL| CPU model name                          AMD EPYC 7742 64-Core Processor
 GLOBAL| CPUID                                                              1002

 MEMORY| system memory details [Kb]
 MEMORY|                        rank 0           min           max       average
 MEMORY| MemTotal            263341976     263341976     263341976     263341976
 MEMORY| MemFree             236106232     236106232     236106732     236106360
 MEMORY| Buffers                     0             0             0             0
 MEMORY| Cached                1598564       1598564       1598564       1598564
 MEMORY| Slab                  5182168       5182148       5182168       5182162
 MEMORY| SReclaimable           113680        113680        113680        113680
 MEMORY| MemLikelyFree       237818476     237818476     237818976     237818604


 *** Fundamental physical constants (SI units) ***

 *** Literature: B. J. Mohr and B. N. Taylor,
 ***             CODATA recommended values of the fundamental physical
 ***             constants: 2006, Web Version 5.1
 ***             http://physics.nist.gov/constants

 Speed of light in vacuum [m/s]                             2.99792458000000E+08
 Magnetic constant or permeability of vacuum [N/A**2]       1.25663706143592E-06
 Electric constant or permittivity of vacuum [F/m]          8.85418781762039E-12
 Planck constant (h) [J*s]                                  6.62606896000000E-34
 Planck constant (h-bar) [J*s]                              1.05457162825177E-34
 Elementary charge [C]                                      1.60217648700000E-19
 Electron mass [kg]                                         9.10938215000000E-31
 Electron g factor [ ]                                     -2.00231930436220E+00
 Proton mass [kg]                                           1.67262163700000E-27
 Fine-structure constant                                    7.29735253760000E-03
 Rydberg constant [1/m]                                     1.09737315685270E+07
 Avogadro constant [1/mol]                                  6.02214179000000E+23
 Boltzmann constant [J/K]                                   1.38065040000000E-23
 Atomic mass unit [kg]                                      1.66053878200000E-27
 Bohr radius [m]                                            5.29177208590000E-11

 *** Conversion factors ***

 [u] -> [a.u.]                                              1.82288848426455E+03
 [Angstrom] -> [Bohr] = [a.u.]                              1.88972613288564E+00
 [a.u.] = [Bohr] -> [Angstrom]                              5.29177208590000E-01
 [a.u.] -> [s]                                              2.41888432650478E-17
 [a.u.] -> [fs]                                             2.41888432650478E-02
 [a.u.] -> [J]                                              4.35974393937059E-18
 [a.u.] -> [N]                                              8.23872205491840E-08
 [a.u.] -> [K]                                              3.15774647902944E+05
 [a.u.] -> [kJ/mol]                                         2.62549961709828E+03
 [a.u.] -> [kcal/mol]                                       6.27509468713739E+02
 [a.u.] -> [Pa]                                             2.94210107994716E+13
 [a.u.] -> [bar]                                            2.94210107994716E+08
 [a.u.] -> [atm]                                            2.90362800883016E+08
 [a.u.] -> [eV]                                             2.72113838565563E+01
 [a.u.] -> [Hz]                                             6.57968392072181E+15
 [a.u.] -> [1/cm] (wave numbers)                            2.19474631370540E+05
 [a.u./Bohr**2] -> [1/cm]                                   5.14048714338585E+03
 

 CELL_TOP| Volume [angstrom^3]:                                      2198.132028
 CELL_TOP| Vector a [angstrom    15.120     0.000     0.000   |a| =    15.120000
 CELL_TOP| Vector b [angstrom     0.000    15.120     0.000   |b| =    15.120000
 CELL_TOP| Vector c [angstrom     0.000     0.000     9.615   |c| =     9.615020
 CELL_TOP| Angle (b,c), alpha [degree]:                                90.000000
 CELL_TOP| Angle (a,c), beta  [degree]:                                90.000000
 CELL_TOP| Angle (a,b), gamma [degree]:                                90.000000
 CELL_TOP| Requested initial symmetry:                       MONOCLINIC_GAMMA_AB
 CELL_TOP| Numerically orthorhombic:                                         YES
 CELL_TOP| Periodicity                                                       XYZ

 *** WARNING in atoms_input.F:123 :: Overwriting coordinates. Active    ***
 *** coordinates read from &COORD section. Active coordinates READ from ***
 *** &COORD section                                                     ***


 GENERATE|  Preliminary Number of Bonds generated:                             0
 GENERATE|  Achieved consistency in connectivity generation.

 CELL| Volume [angstrom^3]:                                          2198.132028
 CELL| Vector a [angstrom]:      15.120     0.000     0.000   |a| =    15.120000
 CELL| Vector b [angstrom]:       0.000    15.120     0.000   |b| =    15.120000
 CELL| Vector c [angstrom]:       0.000     0.000     9.615   |c| =     9.615020
 CELL| Angle (b,c), alpha [degree]:                                    90.000000
 CELL| Angle (a,c), beta  [degree]:                                    90.000000
 CELL| Angle (a,b), gamma [degree]:                                    90.000000
 CELL| Requested initial symmetry:                           MONOCLINIC_GAMMA_AB
 CELL| Numerically orthorhombic:                                             YES
 CELL| Periodicity                                                           XYZ

 CELL_REF| Volume [angstrom^3]:                                      2198.132028
 CELL_REF| Vector a [angstrom    15.120     0.000     0.000   |a| =    15.120000
 CELL_REF| Vector b [angstrom     0.000    15.120     0.000   |b| =    15.120000
 CELL_REF| Vector c [angstrom     0.000     0.000     9.615   |c| =     9.615020
 CELL_REF| Angle (b,c), alpha [degree]:                                90.000000
 CELL_REF| Angle (a,c), beta  [degree]:                                90.000000
 CELL_REF| Angle (a,b), gamma [degree]:                                90.000000
 CELL_REF| Requested initial symmetry:                       MONOCLINIC_GAMMA_AB
 CELL_REF| Numerically orthorhombic:                                         YES
 CELL_REF| Periodicity                                                       XYZ

 *******************************************************************************
 *******************************************************************************
 **                                                                           **
 **     #####                         ##              ##                      **
 **    ##   ##            ##          ##              ##                      **
 **   ##     ##                       ##            ######                    **
 **   ##     ##  ##   ##  ##   #####  ##  ##   ####   ##    #####    #####    **
 **   ##     ##  ##   ##  ##  ##      ## ##   ##      ##   ##   ##  ##   ##   **
 **   ##  ## ##  ##   ##  ##  ##      ####     ###    ##   ######   ######    **
 **    ##  ###   ##   ##  ##  ##      ## ##      ##   ##   ##       ##        **
 **     #######   #####   ##   #####  ##  ##  ####    ##    #####   ##        **
 **           ##                                                    ##        **
 **                                                                           **
 **                                                ... make the atoms dance   **
 **                                                                           **
 **            Copyright (C) by CP2K developers group (2000-2024)             **
 **                      J. Chem. Phys. 152, 194103 (2020)                    **
 **                                                                           **
 *******************************************************************************

 DFT| Spin unrestricted (spin-polarized) Kohn-Sham calculation               UKS
 DFT| Multiplicity                                                             2
 DFT| Number of spin states                                                    2
 DFT| Charge                                                                   1
 DFT| Self-interaction correction (SIC)                                       NO
 DFT| Cutoffs: density                                              1.000000E-10
 DFT|          gradient                                             1.000000E-10
 DFT|          tau                                                  1.000000E-10
 DFT|          cutoff_smoothing_range                               0.000000E+00
 DFT| XC density smoothing                                                  NONE
 DFT| XC derivatives                                                          PW

 FUNCTIONAL| PBE:
 FUNCTIONAL| J.P.Perdew, K.Burke, M.Ernzerhof, Phys. Rev. Letter, vol. 77, n 18,
 FUNCTIONAL|  pp. 3865-3868, (1996) {spin polarized}                            


 QS| Method:                                                                 GPW
 QS| Density plane wave grid type                        NON-SPHERICAL FULLSPACE
 QS| Number of grid levels:                                                    4
 QS| Density cutoff [a.u.]:                                                300.0
 QS| Multi grid cutoff [a.u.]: 1) grid level                               300.0
 QS|                           2) grid level                               100.0
 QS|                           3) grid level                                33.3
 QS|                           4) grid level                                11.1
 QS| Grid level progression factor:                                          3.0
 QS| Relative density cutoff [a.u.]:                                        20.0
 QS| Interaction thresholds: eps_pgf_orb:                                1.0E-06
 QS|                         eps_filter_matrix:                          0.0E+00
 QS|                         eps_core_charge:                            1.0E-14
 QS|                         eps_rho_gspace:                             1.0E-12
 QS|                         eps_rho_rspace:                             1.0E-12
 QS|                         eps_gvg_rspace:                             1.0E-06
 QS|                         eps_ppl:                                    1.0E-02
 QS|                         eps_ppnl:                                   1.0E-08


 ATOMIC KIND INFORMATION

  1. Atomic kind: Ti                                    Number of atoms:      64

     Orbital Basis Set                                    DZVP-MOLOPT-SR-GTH-q12

       Number of orbital shell sets:                                           1
       Number of orbital shells:                                               8
       Number of primitive Cartesian functions:                                6
       Number of Cartesian basis functions:                                   31
       Number of spherical basis functions:                                   26
       Norm type:                                                              2

       Normalised Cartesian orbitals:

                        Set   Shell   Orbital            Exponent    Coefficient

                          1       1    2s                7.884570       0.015554
                                                         3.894698       0.963603
                                                         1.513589      -0.631435
                                                         0.596768      -0.343022
                                                         0.222222      -0.006534
                                                         0.077078       0.007652

                          1       2    3s                7.884570      -0.009340
                                                         3.894698       0.212624
                                                         1.513589      -0.258368
                                                         0.596768      -0.226206
                                                         0.222222       0.039438
                                                         0.077078       0.107179

                          1       3    4s                7.884570       0.276563
                                                         3.894698       0.105452
                                                         1.513589       0.085149
                                                         0.596768       0.882541
                                                         0.222222      -0.696223
                                                         0.077078       0.156638

                          1       4    3px               7.884570      -2.034794
                                                         3.894698       0.782008
                                                         1.513589       1.253903
                                                         0.596768       0.347823
                                                         0.222222       0.016778
                                                         0.077078      -0.000433
                          1       4    3py               7.884570      -2.034794
                                                         3.894698       0.782008
                                                         1.513589       1.253903
                                                         0.596768       0.347823
                                                         0.222222       0.016778
                                                         0.077078      -0.000433
                          1       4    3pz               7.884570      -2.034794
                                                         3.894698       0.782008
                                                         1.513589       1.253903
                                                         0.596768       0.347823
                                                         0.222222       0.016778
                                                         0.077078      -0.000433

                          1       5    4px               7.884570       0.376572
                                                         3.894698      -0.182875
                                                         1.513589      -0.474776
                                                         0.596768      -0.081757
                                                         0.222222       0.064432
                                                         0.077078       0.047279
                          1       5    4py               7.884570       0.376572
                                                         3.894698      -0.182875
                                                         1.513589      -0.474776
                                                         0.596768      -0.081757
                                                         0.222222       0.064432
                                                         0.077078       0.047279
                          1       5    4pz               7.884570       0.376572
                                                         3.894698      -0.182875
                                                         1.513589      -0.474776
                                                         0.596768      -0.081757
                                                         0.222222       0.064432
                                                         0.077078       0.047279

                          1       6    4dx2              7.884570       3.047350
                                                         3.894698       3.289529
                                                         1.513589       1.060616
                                                         0.596768       0.249930
                                                         0.222222       0.038806
                                                         0.077078       0.002319
                          1       6    4dxy              7.884570       5.278165
                                                         3.894698       5.697631
                                                         1.513589       1.837041
                                                         0.596768       0.432892
                                                         0.222222       0.067214
                                                         0.077078       0.004017
                          1       6    4dxz              7.884570       5.278165
                                                         3.894698       5.697631
                                                         1.513589       1.837041
                                                         0.596768       0.432892
                                                         0.222222       0.067214
                                                         0.077078       0.004017
                          1       6    4dy2              7.884570       3.047350
                                                         3.894698       3.289529
                                                         1.513589       1.060616
                                                         0.596768       0.249930
                                                         0.222222       0.038806
                                                         0.077078       0.002319
                          1       6    4dyz              7.884570       5.278165
                                                         3.894698       5.697631
                                                         1.513589       1.837041
                                                         0.596768       0.432892
                                                         0.222222       0.067214
                                                         0.077078       0.004017
                          1       6    4dz2              7.884570       3.047350
                                                         3.894698       3.289529
                                                         1.513589       1.060616
                                                         0.596768       0.249930
                                                         0.222222       0.038806
                                                         0.077078       0.002319

                          1       7    5dx2              7.884570      -2.119015
                                                         3.894698      -1.237751
                                                         1.513589      -0.746777
                                                         0.596768      -0.071514
                                                         0.222222       0.004086
                                                         0.077078       0.017595
                          1       7    5dxy              7.884570      -3.670241
                                                         3.894698      -2.143848
                                                         1.513589      -1.293455
                                                         0.596768      -0.123865
                                                         0.222222       0.007077
                                                         0.077078       0.030475
                          1       7    5dxz              7.884570      -3.670241
                                                         3.894698      -2.143848
                                                         1.513589      -1.293455
                                                         0.596768      -0.123865
                                                         0.222222       0.007077
                                                         0.077078       0.030475
                          1       7    5dy2              7.884570      -2.119015
                                                         3.894698      -1.237751
                                                         1.513589      -0.746777
                                                         0.596768      -0.071514
                                                         0.222222       0.004086
                                                         0.077078       0.017595
                          1       7    5dyz              7.884570      -3.670241
                                                         3.894698      -2.143848
                                                         1.513589      -1.293455
                                                         0.596768      -0.123865
                                                         0.222222       0.007077
                                                         0.077078       0.030475
                          1       7    5dz2              7.884570      -2.119015
                                                         3.894698      -1.237751
                                                         1.513589      -0.746777
                                                         0.596768      -0.071514
                                                         0.222222       0.004086
                                                         0.077078       0.017595

                          1       8    5fx3              7.884570      -0.342058
                                                         3.894698       0.375798
                                                         1.513589      -0.706469
                                                         0.596768      -0.229994
                                                         0.222222      -0.012723
                                                         0.077078       0.003932
                          1       8    5fx2y             7.884570      -0.764866
                                                         3.894698       0.840310
                                                         1.513589      -1.579712
                                                         0.596768      -0.514282
                                                         0.222222      -0.028450
                                                         0.077078       0.008792
                          1       8    5fx2z             7.884570      -0.764866
                                                         3.894698       0.840310
                                                         1.513589      -1.579712
                                                         0.596768      -0.514282
                                                         0.222222      -0.028450
                                                         0.077078       0.008792
                          1       8    5fxy2             7.884570      -0.764866
                                                         3.894698       0.840310
                                                         1.513589      -1.579712
                                                         0.596768      -0.514282
                                                         0.222222      -0.028450
                                                         0.077078       0.008792
                          1       8    5fxyz             7.884570      -1.324787
                                                         3.894698       1.455460
                                                         1.513589      -2.736142
                                                         0.596768      -0.890763
                                                         0.222222      -0.049276
                                                         0.077078       0.015229
                          1       8    5fxz2             7.884570      -0.764866
                                                         3.894698       0.840310
                                                         1.513589      -1.579712
                                                         0.596768      -0.514282
                                                         0.222222      -0.028450
                                                         0.077078       0.008792
                          1       8    5fy3              7.884570      -0.342058
                                                         3.894698       0.375798
                                                         1.513589      -0.706469
                                                         0.596768      -0.229994
                                                         0.222222      -0.012723
                                                         0.077078       0.003932
                          1       8    5fy2z             7.884570      -0.764866
                                                         3.894698       0.840310
                                                         1.513589      -1.579712
                                                         0.596768      -0.514282
                                                         0.222222      -0.028450
                                                         0.077078       0.008792
                          1       8    5fyz2             7.884570      -0.764866
                                                         3.894698       0.840310
                                                         1.513589      -1.579712
                                                         0.596768      -0.514282
                                                         0.222222      -0.028450
                                                         0.077078       0.008792
                          1       8    5fz3              7.884570      -0.342058
                                                         3.894698       0.375798
                                                         1.513589      -0.706469
                                                         0.596768      -0.229994
                                                         0.222222      -0.012723
                                                         0.077078       0.003932

       Atomic covalent radius [Angstrom]:                                  1.320

       Atomic van der Waals radius [Angstrom]:                             1.760

     GTH Potential information for                                   GTH-PBE-q12

       Description:                       Goedecker-Teter-Hutter pseudopotential
                                           Goedecker et al., PRB 54, 1703 (1996)
                                          Hartwigsen et al., PRB 58, 3641 (1998)
                                                      Krack, TCA 114, 145 (2005)

       Gaussian exponent of the core charge distribution:               3.462604
       Electronic configuration (s p d ...):                           4   6   2

       Parameters of the local part of the GTH pseudopotential:

                          rloc        C1          C2          C3          C4
                        0.380000    8.711442   -0.700287

       Parameters of the non-local part of the GTH pseudopotential:

                   l      r(l)      h(i,j,l)

                   0    0.337771    2.575264    3.692971
                                    3.692971   -4.767605
                   1    0.242531   -4.630541    8.870875
                                    8.870875  -10.496161
                   2    0.243317   -9.406653

  2. Atomic kind: O                                     Number of atoms:     128

     Orbital Basis Set                                     DZVP-MOLOPT-SR-GTH-q6

       Number of orbital shell sets:                                           1
       Number of orbital shells:                                               5
       Number of primitive Cartesian functions:                                5
       Number of Cartesian basis functions:                                   14
       Number of spherical basis functions:                                   13
       Norm type:                                                              2

       Normalised Cartesian orbitals:

                        Set   Shell   Orbital            Exponent    Coefficient

                          1       1    2s               10.389228       0.396646
                                                         3.849621       0.208811
                                                         1.388401      -0.301641
                                                         0.496955      -0.274061
                                                         0.162492      -0.033677

                          1       2    3s               10.389228       0.303673
                                                         3.849621       0.240943
                                                         1.388401      -0.313066
                                                         0.496955      -0.043055
                                                         0.162492       0.213991

                          1       3    3px              10.389228      -1.530415
                                                         3.849621      -1.371928
                                                         1.388401      -0.761951
                                                         0.496955      -0.253695
                                                         0.162492      -0.035541
                          1       3    3py              10.389228      -1.530415
                                                         3.849621      -1.371928
                                                         1.388401      -0.761951
                                                         0.496955      -0.253695
                                                         0.162492      -0.035541
                          1       3    3pz              10.389228      -1.530415
                                                         3.849621      -1.371928
                                                         1.388401      -0.761951
                                                         0.496955      -0.253695
                                                         0.162492      -0.035541

                          1       4    4px              10.389228      -0.565392
                                                         3.849621      -0.038231
                                                         1.388401      -0.382373
                                                         0.496955       0.179070
                                                         0.162492       0.122714
                          1       4    4py              10.389228      -0.565392
                                                         3.849621      -0.038231
                                                         1.388401      -0.382373
                                                         0.496955       0.179070
                                                         0.162492       0.122714
                          1       4    4pz              10.389228      -0.565392
                                                         3.849621      -0.038231
                                                         1.388401      -0.382373
                                                         0.496955       0.179070
                                                         0.162492       0.122714

                          1       5    4dx2             10.389228       1.867377
                                                         3.849621       0.670994
                                                         1.388401       1.353441
                                                         0.496955       0.273538
                                                         0.162492       0.006620
                          1       5    4dxy             10.389228       3.234392
                                                         3.849621       1.162195
                                                         1.388401       2.344229
                                                         0.496955       0.473781
                                                         0.162492       0.011466
                          1       5    4dxz             10.389228       3.234392
                                                         3.849621       1.162195
                                                         1.388401       2.344229
                                                         0.496955       0.473781
                                                         0.162492       0.011466
                          1       5    4dy2             10.389228       1.867377
                                                         3.849621       0.670994
                                                         1.388401       1.353441
                                                         0.496955       0.273538
                                                         0.162492       0.006620
                          1       5    4dyz             10.389228       3.234392
                                                         3.849621       1.162195
                                                         1.388401       2.344229
                                                         0.496955       0.473781
                                                         0.162492       0.011466
                          1       5    4dz2             10.389228       1.867377
                                                         3.849621       0.670994
                                                         1.388401       1.353441
                                                         0.496955       0.273538
                                                         0.162492       0.006620

       Atomic covalent radius [Angstrom]:                                  0.730

       Atomic van der Waals radius [Angstrom]:                             1.520

     GTH Potential information for                                    GTH-PBE-q6

       Description:                       Goedecker-Teter-Hutter pseudopotential
                                           Goedecker et al., PRB 54, 1703 (1996)
                                          Hartwigsen et al., PRB 58, 3641 (1998)
                                                      Krack, TCA 114, 145 (2005)

       Gaussian exponent of the core charge distribution:               8.360253
       Electronic configuration (s p d ...):                               2   4

       Parameters of the local part of the GTH pseudopotential:

                          rloc        C1          C2          C3          C4
                        0.244554  -16.667215    2.487311

       Parameters of the non-local part of the GTH pseudopotential:

                   l      r(l)      h(i,j,l)

                   0    0.220956   18.337458
                   1    0.211332


 MOLECULE KIND INFORMATION


 All atoms are their own molecule, skipping detailed information


 TOTAL NUMBERS AND MAXIMUM NUMBERS

  Total number of            - Atomic kinds:                                   2
                             - Atoms:                                        192
                             - Shell sets:                                   192
                             - Shells:                                      1152
                             - Primitive Cartesian functions:               1024
                             - Cartesian basis functions:                   3776
                             - Spherical basis functions:                   3328

  Maximum angular momentum of- Orbital basis functions:                        3
                             - Local part of the GTH pseudopotential:          2
                             - Non-local part of the GTH pseudopotential:      3


 MODULE QUICKSTEP: ATOMIC COORDINATES IN ANGSTROM

   Atom Kind Element         X             Y             Z       Z(eff)     Mass
      1    1 Ti   22      0.000874      0.000853     -0.000001  12.0000  47.8670
      2    1 Ti   22      1.888610      1.888622      4.807510  12.0000  47.8670
      3    1 Ti   22      0.000880      1.888563      2.402037  12.0000  47.8670
      4    1 Ti   22      1.888582      0.000881      7.212976  12.0000  47.8670
      5    1 Ti   22      0.000892      3.776252      0.003225  12.0000  47.8670
      6    1 Ti   22      1.888601     13.237746      4.805755  12.0000  47.8670
      7    1 Ti   22     11.350091      1.888593      2.403673  12.0000  47.8670
      8    1 Ti   22      5.669871      0.000935      7.217062  12.0000  47.8670
      9    1 Ti   22      1.888648      3.776300      7.209725  12.0000  47.8670
     10    1 Ti   22      0.000882     13.237713      2.403803  12.0000  47.8670
     11    1 Ti   22      5.669916      1.888777      4.803368  12.0000  47.8670
     12    1 Ti   22     11.350089      0.000853     -0.001642  12.0000  47.8670
     13    1 Ti   22      3.776267      0.000885     -0.003214  12.0000  47.8670
     14    1 Ti   22     13.237742      1.888606      4.809266  12.0000  47.8670
     15    1 Ti   22     13.237729      0.000897      7.211234  12.0000  47.8670
     16    1 Ti   22      3.776295      1.888650      2.405293  12.0000  47.8670
     17    1 Ti   22      1.888774      5.669923      4.811647  12.0000  47.8670
     18    1 Ti   22      0.000856     11.350091      0.001632  12.0000  47.8670
     19    1 Ti   22      0.000934      5.669869      2.397949  12.0000  47.8670
     20    1 Ti   22      1.888596     11.350089      7.211346  12.0000  47.8670
     21    1 Ti   22      0.000923      7.569150      0.005756  12.0000  47.8670
     22    1 Ti   22      1.888670      9.462584      4.808932  12.0000  47.8670
     23    1 Ti   22      7.569145      1.888746      2.407841  12.0000  47.8670
     24    1 Ti   22      9.462577      0.000906      7.214381  12.0000  47.8670
     25    1 Ti   22      1.888751      7.569145      7.207181  12.0000  47.8670
     26    1 Ti   22      0.000896      9.462576      2.400640  12.0000  47.8670
     27    1 Ti   22      9.462581      1.888685      4.806084  12.0000  47.8670
     28    1 Ti   22      7.569149      0.000919     -0.005752  12.0000  47.8670
     29    1 Ti   22      3.776338      3.776337     -0.000003  12.0000  47.8670
     30    1 Ti   22     13.237745     13.237759      4.807519  12.0000  47.8670
     31    1 Ti   22     11.349938      5.669899      2.399534  12.0000  47.8670
     32    1 Ti   22      5.669902     11.349927      7.215483  12.0000  47.8670
     33    1 Ti   22     13.237704      3.776291      7.208014  12.0000  47.8670
     34    1 Ti   22      3.776283     13.237698      2.407013  12.0000  47.8670
     35    1 Ti   22      5.669987      5.669988      4.807506  12.0000  47.8670
     36    1 Ti   22     11.350068     11.350072      0.000002  12.0000  47.8670
     37    1 Ti   22     11.350110     13.237728      2.405437  12.0000  47.8670
     38    1 Ti   22      5.669939      3.776463      7.213913  12.0000  47.8670
     39    1 Ti   22      3.776274     11.350018     -0.001614  12.0000  47.8670
     40    1 Ti   22     13.237694      5.669895      4.813348  12.0000  47.8670
     41    1 Ti   22      5.669892     13.237691      4.801677  12.0000  47.8670
     42    1 Ti   22     11.350020      3.776269      0.001610  12.0000  47.8670
     43    1 Ti   22     13.237723     11.350114      7.209587  12.0000  47.8670
     44    1 Ti   22      3.776464      5.669936      2.401107  12.0000  47.8670
     45    1 Ti   22      3.776444      7.569086      0.002591  12.0000  47.8670
     46    1 Ti   22     13.237726      9.462605      4.810659  12.0000  47.8670
     47    1 Ti   22      7.569074      5.669969      2.403688  12.0000  47.8670
     48    1 Ti   22      9.462566     11.350035      7.212764  12.0000  47.8670
     49    1 Ti   22     13.237689      7.569174      7.205482  12.0000  47.8670
     50    1 Ti   22      3.776348      9.462497      2.403861  12.0000  47.8670
     51    1 Ti   22      9.462407      5.669966      4.810265  12.0000  47.8670
     52    1 Ti   22      7.569127     11.349937     -0.004163  12.0000  47.8670
     53    1 Ti   22     11.350034      9.462563      2.402244  12.0000  47.8670
     54    1 Ti   22      5.669971      7.569066      7.211330  12.0000  47.8670
     55    1 Ti   22      5.669956      9.462407      4.804748  12.0000  47.8670
     56    1 Ti   22     11.349937      7.569125      0.004160  12.0000  47.8670
     57    1 Ti   22      9.462498      3.776358      7.211156  12.0000  47.8670
     58    1 Ti   22      7.569168     13.237681      2.409543  12.0000  47.8670
     59    1 Ti   22      7.569087      3.776439     -0.002591  12.0000  47.8670
     60    1 Ti   22      9.462598     13.237743      4.804365  12.0000  47.8670
     61    1 Ti   22      7.569069      7.569067      0.000002  12.0000  47.8670
     62    1 Ti   22      9.462527      9.462532      4.807505  12.0000  47.8670
     63    1 Ti   22      7.569099      9.462404      2.406447  12.0000  47.8670
     64    1 Ti   22      9.462404      7.569106      7.208571  12.0000  47.8670
     65    2 O     8      0.000770      0.001704      1.996735   6.0000  15.9994
     66    2 O     8      1.884583      1.887608      6.804344   6.0000  15.9994
     67    2 O     8      0.001705      1.884494      4.400680   6.0000  15.9994
     68    2 O     8      1.887604      0.000790      9.207914   6.0000  15.9994
     69    2 O     8      1.884495      0.001703      5.214340   6.0000  15.9994
     70    2 O     8      0.000791      1.887602      0.407106   6.0000  15.9994
     71    2 O     8      1.887610      1.884583      2.810674   6.0000  15.9994
     72    2 O     8      0.001707      0.000769      7.618285   6.0000  15.9994
     73    2 O     8      0.000856      3.776197      1.995018   6.0000  15.9994
     74    2 O     8      1.884496     13.236862      6.804440   6.0000  15.9994
     75    2 O     8     11.351058      1.884572      4.400629   6.0000  15.9994
     76    2 O     8      5.672149      0.000830      9.209199   6.0000  15.9994
     77    2 O     8      1.884800      3.776184      5.216019   6.0000  15.9994
     78    2 O     8      0.000770     13.236858      0.407015   6.0000  15.9994
     79    2 O     8      5.672121      1.884798      2.809422   6.0000  15.9994
     80    2 O     8     11.351064      0.000787      7.618331   6.0000  15.9994
     81    2 O     8      3.776200      0.000856      7.619999   6.0000  15.9994
     82    2 O     8     13.236864      1.884496      2.810580   6.0000  15.9994
     83    2 O     8     13.236863      0.000770      9.208003   6.0000  15.9994
     84    2 O     8      3.776190      1.884799      4.398998   6.0000  15.9994
     85    2 O     8      1.884798      5.672107      6.805596   6.0000  15.9994
     86    2 O     8      0.000786     11.351064      1.996691   6.0000  15.9994
     87    2 O     8      0.000830      5.672152      0.405822   6.0000  15.9994
     88    2 O     8      1.884572     11.351055      5.214392   6.0000  15.9994
     89    2 O     8      0.000828      7.566931      1.997942   6.0000  15.9994
     90    2 O     8      1.884789      9.462628      6.802802   6.0000  15.9994
     91    2 O     8      7.566969      1.884793      4.401849   6.0000  15.9994
     92    2 O     8      9.462625      0.000853      9.206327   6.0000  15.9994
     93    2 O     8      1.884792      7.566961      5.213172   6.0000  15.9994
     94    2 O     8      0.000853      9.462624      0.408695   6.0000  15.9994
     95    2 O     8      9.462633      1.884791      2.812219   6.0000  15.9994
     96    2 O     8      7.566932      0.000828      7.617080   6.0000  15.9994
     97    2 O     8      3.769323      0.001719      1.996990   6.0000  15.9994
     98    2 O     8     13.237675      1.887605      6.804148   6.0000  15.9994
     99    2 O     8      0.001768      5.656032      4.400375   6.0000  15.9994
    100    2 O     8      1.887605     11.353969      9.208101   6.0000  15.9994
    101    2 O     8     13.237692      0.001711      5.214544   6.0000  15.9994
    102    2 O     8      3.769484      1.887671      0.406848   6.0000  15.9994
    103    2 O     8      1.887852      5.656320      2.810930   6.0000  15.9994
    104    2 O     8      0.001702     11.354049      7.618091   6.0000  15.9994
    105    2 O     8     11.353969      1.887607      0.406917   6.0000  15.9994
    106    2 O     8      5.656035      0.001770      5.214645   6.0000  15.9994
    107    2 O     8      5.656323      1.887852      6.804089   6.0000  15.9994
    108    2 O     8     11.354050      0.001702      1.996929   6.0000  15.9994
    109    2 O     8      1.887672      3.769483      9.208173   6.0000  15.9994
    110    2 O     8      0.001708     13.237691      4.400477   6.0000  15.9994
    111    2 O     8      0.001720      3.769322      7.618029   6.0000  15.9994
    112    2 O     8      1.887603     13.237674      2.810874   6.0000  15.9994
    113    2 O     8      3.769871      3.776234      1.995377   6.0000  15.9994
    114    2 O     8     13.237692     13.236864      6.804235   6.0000  15.9994
    115    2 O     8     11.350817      5.656258      4.400368   6.0000  15.9994
    116    2 O     8      5.672111     11.353765      9.209356   6.0000  15.9994
    117    2 O     8     13.237612      3.776199      5.216263   6.0000  15.9994
    118    2 O     8      3.769320     13.236847      0.406760   6.0000  15.9994
    119    2 O     8      5.672156      5.657181      2.809478   6.0000  15.9994
    120    2 O     8     11.351055     11.353975      7.618141   6.0000  15.9994
    121    2 O     8     11.354052     13.236863      0.406822   6.0000  15.9994
    122    2 O     8      5.656796      3.776415      5.216086   6.0000  15.9994
    123    2 O     8      3.776188     11.353757      7.619768   6.0000  15.9994
    124    2 O     8     13.236806      5.656074      2.810887   6.0000  15.9994
    125    2 O     8      5.656072     13.236806      6.804129   6.0000  15.9994
    126    2 O     8     11.353759      3.776189      1.995251   6.0000  15.9994
    127    2 O     8     13.236860     11.354053      9.208197   6.0000  15.9994
    128    2 O     8      3.776413      5.656795      4.398933   6.0000  15.9994
    129    2 O     8      5.657183      5.672154      6.805543   6.0000  15.9994
    130    2 O     8     11.353975     11.351059      1.996877   6.0000  15.9994
    131    2 O     8     13.236848      3.769320      9.208260   6.0000  15.9994
    132    2 O     8      3.776197     13.237613      4.398757   6.0000  15.9994
    133    2 O     8     11.353765      5.672116      0.405664   6.0000  15.9994
    134    2 O     8      5.656254     11.350815      5.214651   6.0000  15.9994
    135    2 O     8      3.776240      3.769870      7.619645   6.0000  15.9994
    136    2 O     8     13.236861     13.237694      2.810785   6.0000  15.9994
    137    2 O     8     13.237676     11.351065      5.214588   6.0000  15.9994
    138    2 O     8      3.769961      5.672084      0.405587   6.0000  15.9994
    139    2 O     8      5.672155     13.237639      2.809586   6.0000  15.9994
    140    2 O     8     11.350993      3.769468      7.618079   6.0000  15.9994
    141    2 O     8      3.769466     11.350993      1.996943   6.0000  15.9994
    142    2 O     8     13.237640      5.672154      6.805434   6.0000  15.9994
    143    2 O     8     11.351066     13.237677      4.400435   6.0000  15.9994
    144    2 O     8      5.672095      3.769958      9.209432   6.0000  15.9994
    145    2 O     8      3.769955      7.566988      1.998165   6.0000  15.9994
    146    2 O     8     13.237616      9.462624      6.802559   6.0000  15.9994
    147    2 O     8      7.566927      5.657127      4.401787   6.0000  15.9994
    148    2 O     8      9.462630     11.353774      9.206558   6.0000  15.9994
    149    2 O     8     13.237640      7.566928      5.213332   6.0000  15.9994
    150    2 O     8      3.769847      9.462584      0.408338   6.0000  15.9994
    151    2 O     8      9.462401      5.656813      2.812294   6.0000  15.9994
    152    2 O     8      7.566962     11.353766      7.616923   6.0000  15.9994
    153    2 O     8     11.353772      9.462635      0.408463   6.0000  15.9994
    154    2 O     8      5.657129      7.566915      5.213232   6.0000  15.9994
    155    2 O     8      5.656806      9.462397      6.802723   6.0000  15.9994
    156    2 O     8     11.353767      7.566969      1.998096   6.0000  15.9994
    157    2 O     8      9.462583      3.769851      9.206683   6.0000  15.9994
    158    2 O     8      7.566924     13.237640      4.401690   6.0000  15.9994
    159    2 O     8      7.566995      3.769956      7.616852   6.0000  15.9994
    160    2 O     8      9.462624     13.237618      2.812466   6.0000  15.9994
    161    2 O     8      7.582781      0.001762      1.996653   6.0000  15.9994
    162    2 O     8      9.469094      1.887669      6.804405   6.0000  15.9994
    163    2 O     8      0.001718      9.469249      4.400734   6.0000  15.9994
    164    2 O     8      1.887832      7.582554      9.207874   6.0000  15.9994
    165    2 O     8      9.469249      0.001721      5.214285   6.0000  15.9994
    166    2 O     8      7.582550      1.887833      0.407145   6.0000  15.9994
    167    2 O     8      1.887664      9.469093      2.810616   6.0000  15.9994
    168    2 O     8      0.001762      7.582770      7.618367   6.0000  15.9994
    169    2 O     8      7.582044      3.776401      1.995197   6.0000  15.9994
    170    2 O     8      9.469251     13.236851      6.804493   6.0000  15.9994
    171    2 O     8     11.350994      9.469109      4.400687   6.0000  15.9994
    172    2 O     8      5.672139      7.581739      9.209300   6.0000  15.9994
    173    2 O     8      9.468716      3.776230      5.215908   6.0000  15.9994
    174    2 O     8      7.582781     13.236813      0.407100   6.0000  15.9994
    175    2 O     8      5.672080      9.468638      2.809355   6.0000  15.9994
    176    2 O     8     11.350836      7.582560      7.618380   6.0000  15.9994
    177    2 O     8      3.776395      7.582032      7.619820   6.0000  15.9994
    178    2 O     8     13.236848      9.469252      2.810527   6.0000  15.9994
    179    2 O     8     13.236813      7.582791      9.207921   6.0000  15.9994
    180    2 O     8      3.776225      9.468712      4.399111   6.0000  15.9994
    181    2 O     8      9.468638      5.672090      6.805660   6.0000  15.9994
    182    2 O     8      7.582567     11.350838      1.996642   6.0000  15.9994
    183    2 O     8      7.581726      5.672153      0.405718   6.0000  15.9994
    184    2 O     8      9.469108     11.350996      5.214334   6.0000  15.9994
    185    2 O     8      7.581729      7.566944      1.998034   6.0000  15.9994
    186    2 O     8      9.468736      9.462589      6.802910   6.0000  15.9994
    187    2 O     8      7.566975      9.468642      4.401911   6.0000  15.9994
    188    2 O     8      9.462425      7.582085      9.206499   6.0000  15.9994
    189    2 O     8      9.468641      7.566993      5.213109   6.0000  15.9994
    190    2 O     8      7.582073      9.462428      0.408524   6.0000  15.9994
    191    2 O     8      9.462583      9.468737      2.812112   6.0000  15.9994
    192    2 O     8      7.566940      7.581725      7.616987   6.0000  15.9994



 SCF PARAMETERS         Density guess:                                   RESTART
                        --------------------------------------------------------
                        max_scf:                                              40
                        max_scf_history:                                       0
                        max_diis:                                              4
                        --------------------------------------------------------
                        eps_scf:                                        1.00E-06
                        eps_scf_history:                                0.00E+00
                        eps_diis:                                       1.00E-01
                        eps_eigval:                                     1.00E-05
                        --------------------------------------------------------
                        level_shift [a.u.]:                             0.000000
                        --------------------------------------------------------
                        Outer loop SCF in use 
                        No variables optimised in outer loop
                        eps_scf                                         1.00E-06
                        max_scf                                               60
                        No outer loop optimization
                        step_size                                       5.00E-01

 PW_GRID| Information for grid number                                          1
 PW_GRID| Grid distributed over                                   128 processors
 PW_GRID| Real space group dimensions                                   128    1
 PW_GRID| the grid is blocked:                                                NO
 PW_GRID| Cutoff [a.u.]                                                    300.0
 PW_GRID| spherical cutoff:                                                   NO
 PW_GRID|   Bounds   1           -112     112                Points:         225
 PW_GRID|   Bounds   2           -112     112                Points:         225
 PW_GRID|   Bounds   3            -72      71                Points:         144
 PW_GRID| Volume element (a.u.^3)  0.2035E-02     Volume (a.u.^3)     14833.7304
 PW_GRID| Grid span                                                    FULLSPACE
 PW_GRID|   Distribution                         Average         Max         Min
 PW_GRID|   G-Vectors                            56953.1       57150       56925
 PW_GRID|   G-Rays                                 253.1         254         253
 PW_GRID|   Real Space Points                    56953.1       64800       32400

 PW_GRID| Information for grid number                                          2
 PW_GRID| Number of the reference grid                                         1
 PW_GRID| Grid distributed over                                   128 processors
 PW_GRID| Real space group dimensions                                   128    1
 PW_GRID| the grid is blocked:                                                NO
 PW_GRID| Cutoff [a.u.]                                                    100.0
 PW_GRID| spherical cutoff:                                                   NO
 PW_GRID|   Bounds   1            -67      67                Points:         135
 PW_GRID|   Bounds   2            -67      67                Points:         135
 PW_GRID|   Bounds   3            -40      40                Points:          81
 PW_GRID| Volume element (a.u.^3)  0.1005E-01     Volume (a.u.^3)     14833.7304
 PW_GRID| Grid span                                                    FULLSPACE
 PW_GRID|   Distribution                         Average         Max         Min
 PW_GRID|   G-Vectors                            11533.0       12150       10800
 PW_GRID|   G-Rays                                  85.4          90          80
 PW_GRID|   Real Space Points                    11533.0       21870       10935

 PW_GRID| Information for grid number                                          3
 PW_GRID| Number of the reference grid                                         1
 PW_GRID| Grid distributed over                                   128 processors
 PW_GRID| Real space group dimensions                                     8   16
 PW_GRID| the grid is blocked:                                                NO
 PW_GRID| Cutoff [a.u.]                                                     33.3
 PW_GRID| spherical cutoff:                                                   NO
 PW_GRID|   Bounds   1            -37      37                Points:          75
 PW_GRID|   Bounds   2            -37      37                Points:          75
 PW_GRID|   Bounds   3            -24      23                Points:          48
 PW_GRID| Volume element (a.u.^3)  0.5494E-01     Volume (a.u.^3)     14833.7304
 PW_GRID| Grid span                                                    FULLSPACE
 PW_GRID|   Distribution                         Average         Max         Min
 PW_GRID|   G-Vectors                             2109.4        2475        1725
 PW_GRID|   G-Rays                                  28.1          33          23
 PW_GRID|   Real Space Points                     2109.4        2400        1728

 PW_GRID| Information for grid number                                          4
 PW_GRID| Number of the reference grid                                         1
 PW_GRID| Grid distributed over                                   128 processors
 PW_GRID| Real space group dimensions                                     8   16
 PW_GRID| the grid is blocked:                                                NO
 PW_GRID| Cutoff [a.u.]                                                     11.1
 PW_GRID| spherical cutoff:                                                   NO
 PW_GRID|   Bounds   1            -22      22                Points:          45
 PW_GRID|   Bounds   2            -22      22                Points:          45
 PW_GRID|   Bounds   3            -13      13                Points:          27
 PW_GRID| Volume element (a.u.^3)  0.2713         Volume (a.u.^3)     14833.7304
 PW_GRID| Grid span                                                    FULLSPACE
 PW_GRID|   Distribution                         Average         Max         Min
 PW_GRID|   G-Vectors                              427.1         585         270
 PW_GRID|   G-Rays                                   9.5          13           6
 PW_GRID|   Real Space Points                      427.1         486         270

 POISSON| Solver                                                        PERIODIC
 POISSON| Periodicity                                                        XYZ

 RS_GRID| Information for grid number                                          1
 RS_GRID|   Bounds   1           -112     112                Points:         225
 RS_GRID|   Bounds   2           -112     112                Points:         225
 RS_GRID|   Bounds   3            -72      71                Points:         144
 RS_GRID| Real space distribution over                                  8 groups
 RS_GRID| Real space distribution along direction                              1
 RS_GRID| Border size                                                         26
 RS_GRID| Real space distribution over                                 16 groups
 RS_GRID| Real space distribution along direction                              2
 RS_GRID| Border size                                                         26
 RS_GRID|   Distribution                         Average         Max         Min
 RS_GRID|   Planes                                  80.1          81          80
 RS_GRID|   Distribution                         Average         Max         Min
 RS_GRID|   Planes                                  66.1          67          66

 RS_GRID| Information for grid number                                          2
 RS_GRID|   Bounds   1            -67      67                Points:         135
 RS_GRID|   Bounds   2            -67      67                Points:         135
 RS_GRID|   Bounds   3            -40      40                Points:          81
 RS_GRID| Real space distribution over                                  8 groups
 RS_GRID| Real space distribution along direction                              1
 RS_GRID| Border size                                                         24
 RS_GRID| Real space distribution over                                 16 groups
 RS_GRID| Real space distribution along direction                              2
 RS_GRID| Border size                                                         24
 RS_GRID|   Distribution                         Average         Max         Min
 RS_GRID|   Planes                                  64.9          65          64
 RS_GRID|   Distribution                         Average         Max         Min
 RS_GRID|   Planes                                  56.4          57          56

 RS_GRID| Information for grid number                                          3
 RS_GRID|   Bounds   1            -37      37                Points:          75
 RS_GRID|   Bounds   2            -37      37                Points:          75
 RS_GRID|   Bounds   3            -24      23                Points:          48
 RS_GRID| Real space fully replicated
 RS_GRID| Group size                                                           1

 RS_GRID| Information for grid number                                          4
 RS_GRID|   Bounds   1            -22      22                Points:          45
 RS_GRID|   Bounds   2            -22      22                Points:          45
 RS_GRID|   Bounds   3            -13      13                Points:          27
 RS_GRID| Real space fully replicated
 RS_GRID| Group size                                                           1

 BFGS| Use rational function optimization for step estimation:                NO
 BFGS| Use model Hessian for initial guess:                                  YES
 BFGS| Restart Hessian:                                                       NO
 BFGS| Trust radius:                                                       0.472

 *******************************************************************************
 ***                     STARTING GEOMETRY OPTIMIZATION                      ***
 ***                                   BFGS                                  ***
 *******************************************************************************

 Spin 1

 Number of electrons:                                                        768
 Number of occupied orbitals:                                                768
 Number of molecular orbitals:                                               768

 Spin 2

 Number of electrons:                                                        767
 Number of occupied orbitals:                                                767
 Number of molecular orbitals:                                               767

 Number of orbital functions:                                               3328
 Number of independent orbital functions:                                   3328

 Extrapolation method: initial_guess

 *** WARNING in qs_initial_guess.F:306 :: User requested to restart the    ***
 *** wavefunction from the file named: tio2-RESTART.wfn. This file does    ***
 *** not exist. Please check the existence of the file or change properly  ***
 *** the value of the keyword WFN_RESTART_FILE_NAME. Calculation continues ***
 *** using ATOMIC GUESS.                                                   ***


 Atomic guess: The first density matrix is obtained in terms of atomic orbitals
               and electronic configurations assigned to each atomic kind

 Guess for atomic kind: Ti

 Electronic structure
    Total number of core electrons                                         10.00
    Total number of valence electrons                                      12.00
    Total number of electrons                                              22.00
    Multiplicity                                                   not specified
    S   [  2.00  2.00] 2.00  2.00
    P   [  6.00] 6.00
    D      2.00


 *******************************************************************************
                  Iteration          Convergence                     Energy [au]
 *******************************************************************************
                          1         2.59099                     -56.573945749309
                          2        0.737518                     -57.461623245624
                          3        0.123244E-01                 -57.676656834797
                          4        0.338536E-02                 -57.676690535970
                          5        0.252157E-03                 -57.676697146183
                          6        0.162704E-05                 -57.676697160103
                          7        0.846593E-06                 -57.676697160104

 Energy components [Hartree]           Total Energy ::          -57.676697160104
                                        Band Energy ::          -13.440549799540
                                     Kinetic Energy ::           25.008468428381
                                   Potential Energy ::          -82.685165588485
                                      Virial (-V/T) ::            3.306286661467
                                        Core Energy ::          -97.155838374470
                                          XC Energy ::           -6.919409696495
                                     Coulomb Energy ::           46.398550910862
                       Total Pseudopotential Energy ::         -122.259340742080
                       Local Pseudopotential Energy ::         -118.928992669456
                    Nonlocal Pseudopotential Energy ::           -3.330348072625
                                        Confinement ::            0.950339392289

 Orbital energies  State     L     Occupation   Energy[a.u.]          Energy[eV]

                       1     0          2.000      -2.312566          -62.928123
                       2     0          2.000      -0.123060           -3.348633

                       1     1          6.000      -1.385567          -37.703193

                       1     2          2.000      -0.127948           -3.481643


 Total Electron Density at R=0:                                         0.004726

 Guess for atomic kind: O

 Electronic structure
    Total number of core electrons                                          2.00
    Total number of valence electrons                                       6.00
    Total number of electrons                                               8.00
    Multiplicity                                                   not specified
    S   [  2.00] 2.00
    P      4.00


 *******************************************************************************
                  Iteration          Convergence                     Energy [au]
 *******************************************************************************
                          1        0.702811                     -15.577904332270
                          2        0.612408                     -15.588447180504
                          3        0.955344E-02                 -15.655871208406
                          4        0.223754E-02                 -15.655885053552
                          5        0.157183E-02                 -15.655885461027
                          6        0.124953E-02                 -15.655885607150
                          7        0.312011E-06                 -15.655885858066

 Energy components [Hartree]           Total Energy ::          -15.655885858066
                                        Band Energy ::           -2.983128125584
                                     Kinetic Energy ::           11.754765134683
                                   Potential Energy ::          -27.410650992749
                                      Virial (-V/T) ::            2.331875684345
                                        Core Energy ::          -26.153522949072
                                          XC Energy ::           -3.157392363346
                                     Coulomb Energy ::           13.655029454351
                       Total Pseudopotential Energy ::          -37.943026860963
                       Local Pseudopotential Energy ::          -39.220419683052
                    Nonlocal Pseudopotential Energy ::            1.277392822089
                                        Confinement ::            0.347387772086

 Orbital energies  State     L     Occupation   Energy[a.u.]          Energy[eV]

                       1     0          2.000      -0.861522          -23.443215

                       1     1          4.000      -0.315021           -8.572154


 Total Electron Density at R=0:                                         0.000093

 Spin 1
 Re-scaling the density matrix to get the right number of electrons for spin 1
                  # Electrons              Trace(P)               Scaling factor
                          768               768.001                        1.000

 Spin 2
 Re-scaling the density matrix to get the right number of electrons for spin 2
                  # Electrons              Trace(P)               Scaling factor
                          767               768.001                        0.999


 SCF WAVEFUNCTION OPTIMIZATION

  ----------------------------------- OT ---------------------------------------
  Minimizer      : DIIS                : direct inversion
                                         in the iterative subspace
                                         using   7 DIIS vectors
                                         safer DIIS on
  Preconditioner : FULL_SINGLE_INVERSE : inversion of 
                                         H + eS - 2*(Sc)(c^T*H*c+const)(Sc)^T
  Precond_solver : DEFAULT
  stepsize       :    0.08000000                  energy_gap     :    0.08000000
  eps_taylor     :   0.10000E-15                  max_taylor     :             4
  ----------------------------------- OT ---------------------------------------

  Step     Update method      Time    Convergence         Total energy    Change
  ------------------------------------------------------------------------------
     1 OT DIIS     0.80E-01    2.2     0.01013841     -5663.8827733584 -5.66E+03
     2 OT DIIS     0.80E-01    1.5     0.00730483     -5699.4784727797 -3.56E+01
     3 OT DIIS     0.80E-01    1.5     0.00457591     -5733.1243193233 -3.36E+01
     4 OT DIIS     0.80E-01    1.5     0.00365710     -5743.2729545849 -1.01E+01
     5 OT DIIS     0.80E-01    1.5     0.00267276     -5754.9812569079 -1.17E+01
     6 OT DIIS     0.80E-01    1.5     0.00220131     -5761.9592476497 -6.98E+00
     7 OT DIIS     0.80E-01    1.5     0.00183244     -5768.2876997700 -6.33E+00
     8 OT DIIS     0.80E-01    1.5     0.00147148     -5774.2346935094 -5.95E+00
     9 OT DIIS     0.80E-01    1.5     0.00127542     -5777.8907036524 -3.66E+00
    10 OT DIIS     0.80E-01    1.5     0.00099394     -5781.2050282427 -3.31E+00
    11 OT DIIS     0.80E-01    1.5     0.00090782     -5782.0045678589 -8.00E-01
    12 OT DIIS     0.80E-01    1.5     0.00073331     -5783.8497687913 -1.85E+00
    13 OT DIIS     0.80E-01    1.5     0.00060877     -5785.1509469744 -1.30E+00
    14 OT DIIS     0.80E-01    1.5     0.00050412     -5786.1018579051 -9.51E-01
    15 OT DIIS     0.80E-01    1.5     0.00045823     -5786.5893954533 -4.88E-01
    16 OT DIIS     0.80E-01    1.5     0.00038984     -5787.1033876082 -5.14E-01
    17 OT DIIS     0.80E-01    1.7     0.00036591     -5787.3175787530 -2.14E-01
    18 OT DIIS     0.80E-01    1.5     0.00031378     -5787.6808334400 -3.63E-01
    19 OT DIIS     0.80E-01    1.5     0.00027556     -5787.9096655975 -2.29E-01
    20 OT DIIS     0.80E-01    1.4     0.00026039     -5788.0290731894 -1.19E-01
    21 OT DIIS     0.80E-01    1.4     0.00024725     -5788.1750766170 -1.46E-01
    22 OT DIIS     0.80E-01    1.5     0.00023616     -5788.2525112714 -7.74E-02
    23 OT DIIS     0.80E-01    1.5     0.00020639     -5788.4686694209 -2.16E-01
    24 OT DIIS     0.80E-01    1.5     0.00018329     -5788.6322955331 -1.64E-01
    25 OT DIIS     0.80E-01    1.5     0.00017958     -5788.6272630748  5.03E-03
    26 OT DIIS     0.80E-01    1.4     0.00015507     -5788.7343894102 -1.07E-01
    27 OT DIIS     0.80E-01    1.5     0.00014674     -5788.7985155157 -6.41E-02
    28 OT DIIS     0.80E-01    1.8     0.00013490     -5788.8404447836 -4.19E-02
    29 OT DIIS     0.80E-01    1.6     0.00013148     -5788.8988123946 -5.84E-02
    30 OT DIIS     0.80E-01    1.5     0.00012311     -5788.9262886215 -2.75E-02
    31 OT DIIS     0.80E-01    1.4     0.00011843     -5788.9525537410 -2.63E-02
    32 OT DIIS     0.80E-01    1.5     0.00011032     -5788.9669643544 -1.44E-02
    33 OT DIIS     0.80E-01    1.4     0.00009893     -5789.0070541004 -4.01E-02
    34 OT DIIS     0.80E-01    1.4     0.00009188     -5789.0365654185 -2.95E-02
    35 OT DIIS     0.80E-01    1.5     0.00008510     -5789.0587177171 -2.22E-02
    36 OT DIIS     0.80E-01    1.4     0.00008065     -5789.0800316599 -2.13E-02
    37 OT DIIS     0.80E-01    1.4     0.00007824     -5789.1004548900 -2.04E-02
    38 OT DIIS     0.80E-01    1.4     0.00007675     -5789.1030535008 -2.60E-03
    39 OT DIIS     0.80E-01    1.5     0.00007298     -5789.1134458918 -1.04E-02
    40 OT DIIS     0.80E-01    1.4     0.00007069     -5789.1379600357 -2.45E-02

  Leaving inner SCF loop after reaching    40 steps.


  Electronic density on regular grids:      -1534.9999999999        0.0000000001
  Core density on regular grids:             1535.9999999995       -0.0000000005
  Total charge density on r-space grids:        0.9999999996
  Total charge density g-space grids:           0.9999999996

  Overlap energy of the core charge distribution:               0.00000000000333
  Self energy of the core charge distribution:             -12156.89556134359555
  Core Hamiltonian energy:                                   3243.40877926570101
  Hartree energy:                                            4043.88532218128557
  Exchange-correlation energy:                               -919.53650013905144

  Total energy:                                             -5789.13796003565585

  outer SCF iter =    1 RMS gradient =   0.71E-04 energy =      -5789.1379600357

  ----------------------------------- OT ---------------------------------------
  Minimizer      : DIIS                : direct inversion
                                         in the iterative subspace
                                         using   7 DIIS vectors
                                         safer DIIS on
  Preconditioner : FULL_SINGLE_INVERSE : inversion of 
                                         H + eS - 2*(Sc)(c^T*H*c+const)(Sc)^T
  Precond_solver : DEFAULT
[...]
 flops    96 x    32 x    64         350408933376       0.0%    100.0%      0.0%     
 flops    13 x    13 x    64         392470241280       0.0%    100.0%      0.0%     
 flops    26 x    13 x    64         401379164160       0.0%    100.0%      0.0%     
 flops    13 x    26 x    64         401379164160       0.0%    100.0%      0.0%     
 flops    26 x    26 x    64         407650713600       0.0%    100.0%      0.0%     
 flops   416 x    32 x    32         591497527296       0.0%    100.0%      0.0%     
 flops    96 x    64 x    64         660124729344       0.0%    100.0%      0.0%     
 flops   416 x    64 x    32        1109057863680       0.0%    100.0%      0.0%     
 flops   416 x    32 x    64        1109057863680       0.0%    100.0%      0.0%     
 flops    96 x    32 x   208        1377816281088       0.0%    100.0%      0.0%     
 flops   416 x    32 x   208        1718221799424       0.0%    100.0%      0.0%     
 flops   416 x    64 x    64        2088725643264       0.0%    100.0%      0.0%     
 flops    13 x    32 x    13        2597733924864       0.0%    100.0%      0.0%     
 flops    96 x    64 x   208        2599333920768       0.0%    100.0%      0.0%     
 flops    26 x    32 x    26        2681531793408       0.0%    100.0%      0.0%     
 flops    26 x    32 x    13        2681531793408       0.0%    100.0%      0.0%     
 flops    13 x    32 x    26        2681531793408       0.0%    100.0%      0.0%     
 flops   416 x    64 x   208        3243639832576       0.0%    100.0%      0.0%     
 flops inhomo. stacks                    10481700     100.0%      0.0%      0.0%
 flops total                        30.221744E+12       0.0%    100.0%      0.0%
 flops max/rank                    313.844575E+09       0.0%    100.0%      0.0%
 matmuls inhomo. stacks                     15170     100.0%      0.0%      0.0%
 matmuls total                          700406274       0.0%    100.0%      0.0%
 number of processed stacks              18475522       0.1%     99.9%      0.0%
 average stack size                                     1.0      37.9       0.0
 marketing flops                    32.993884E+12
 -------------------------------------------------------------------------------
 # multiplications                          13146
 max memory usage/rank             375.488512E+06
 # max total images/rank                        2
 # max 3D layers                                1
 # MPI messages exchanged                48797952
 MPI messages size (bytes):
  total size                         4.664057E+12
  min size                           0.000000E+00
  max size                         692.224000E+03
  average size                      95.578945E+03
 MPI breakdown and total messages size (bytes):
             size <=      128            22489712                   542768
       128 < size <=     8192             2295792              13873096592
      8192 < size <=    32768             6689376             151910353208
     32768 < size <=   131072             8338432             648946262720
    131072 < size <=  4194304             8984640            3849308835840
   4194304 < size <= 16777216                   0                        0
  16777216 < size                               0                        0
 -------------------------------------------------------------------------------

 *** WARNING in dbcsr_mm.F:301 :: Using a non-square number of MPI ranks ***
 *** might lead to poor performance. Used ranks: 128 Suggested: 121 256  ***

 -------------------------------------------------------------------------------
 -                                                                             -
 -                      DBCSR MESSAGE PASSING PERFORMANCE                      -
 -                                                                             -
 -------------------------------------------------------------------------------
 ROUTINE             CALLS      AVE VOLUME [Bytes]
 MP_Bcast               97                     12.
 MP_Allreduce        67456                     15.
 MP_Alltoall         48920                  29607.
 MP_ISend           826642                  47201.
 MP_IRecv           824602                  46883.
 -------------------------------------------------------------------------------

 -------------------------------------------------------------------------------
 -                                                                             -
 -                                DBM STATISTICS                               -
 -                                                                             -
 -------------------------------------------------------------------------------
    M  x    N  x    K                                          COUNT     PERCENT
 -------------------------------------------------------------------------------

 -------------------------------------------------------------------------------
 -                                                                             -
 -                                GRID STATISTICS                              -
 -                                                                             -
 -------------------------------------------------------------------------------
 LP    KERNEL             BACKEND                              COUNT     PERCENT
 5     collocate ortho    CPU                               44505620      25.12%
 5     integrate ortho    CPU                               43681952      24.65%
 6     integrate ortho    CPU                               23067432      13.02%
 6     collocate ortho    CPU                               22768480      12.85%
 4     collocate ortho    CPU                               20350526      11.49%
 4     integrate ortho    CPU                               19777250      11.16%
 0     integrate general  CPU                                1572864       0.89%
 0     collocate general  CPU                                 884736       0.50%
 7     integrate ortho    CPU                                 480972       0.27%
 1     integrate general  CPU                                  73728       0.04%
 2     collocate ortho    CPU                                  10240       0.01%
 3     collocate ortho    CPU                                   6144       0.00%
 -------------------------------------------------------------------------------

 MEMORY| Estimated peak process memory [MiB]                                 359

 -------------------------------------------------------------------------------
 ----                             MULTIGRID INFO                            ----
 -------------------------------------------------------------------------------
 count for grid        1:        1694444          cutoff [a.u.]          300.00
 count for grid        2:        1447769          cutoff [a.u.]          100.00
 count for grid        3:        1525556          cutoff [a.u.]           33.33
 count for grid        4:        1430444          cutoff [a.u.]           11.11
 total gridlevel count  :        6098213

 -------------------------------------------------------------------------------
 -                                                                             -
 -                         MESSAGE PASSING PERFORMANCE                         -
 -                                                                             -
 -------------------------------------------------------------------------------

 ROUTINE             CALLS      AVE VOLUME [Bytes]
 MP_Group                4
 MP_Bcast            12306                  13601.
 MP_Allreduce        33333                    462.
 MP_Sync              1853
 MP_Alltoall          5959                1991559.
 MP_SendRecv         76200                  11544.
 MP_ISendRecv        71628                  11544.
 MP_Wait            107042
 MP_comm_split         685
 MP_ISend            63946                  78649.
 MP_IRecv            63766                  78863.
 MP_Write_All           24                 355816.
 -------------------------------------------------------------------------------


 -------------------------------------------------------------------------------
 -                                                                             -
 -                           R E F E R E N C E S                               -
 -                                                                             -
 -------------------------------------------------------------------------------
 
 CP2K version 2024.3, the CP2K developers group (2024).
 CP2K is freely available from https://www.cp2k.org/ .
 
 T. D. Kuehne, M. Iannuzzi, M. Del Ben, V. V. Rybkin, P. Seewald, F. Stein, T. 
 Laino, R. Z. Khaliullin, O. Schuett, F. Schiffmann, D. Golze, J. Wilhelm, S. 
 Chulkov, M. H. Bani-Hashemian, V. Weber, U. Borstnik, M. Taillefumier, A. S. 
 Jakobovits, A. Lazzaro, H. Pabst, T. Mueller, R. Schade, M. Guidon, S. 
 Andermatt, N. Holmberg, G. K. Schenter, A. Hehn, A. Bussy, F. Belleflamme, G. 
 Tabacchi, A. Gloess, M. Lass, I. Bethune, C. J. Mundy, C. Plessl, M. Watkins, 
 J. VandeVondele, M. Krack, J. Hutter.
 J. Chem. Phys. 152, 194103 (2020).
 CP2K: An electronic structure and molecular dynamics software package - 
 Quickstep: Efficient and accurate electronic structure calculations.
 https://doi.org/10.1063/5.0007045

 O. Schuett, P. Messmer, J. Hutter, J. VandeVondele.
 Electronic Structure Calculations on Graphics Processing Units, 173-190 (2016).
 GPU-Accelerated Sparse Matrix-Matrix Multiplication for Linear Scaling Density 
 Functional Theory.
 https://doi.org/10.1002/9781118670712.ch8

 A. Heinecke, G. Henry, M. Hutchinson, H. Pabst.
 Proceedings of Intl. Supercomputing Conference, 981-991 (2016).
 LIBXSMM: Accelerating Small Matrix Multiplications by Runtime Code Generation.
 https://doi.org/10.1109/SC.2016.83

 J. Hutter, M. Iannuzzi, F. Schiffmann, J. VandeVondele.
 WIREs Comput Mol Sci. 4, 15-25 (2014).
 CP2K: atomistic simulations of condensed matter systems.
 https://doi.org/10.1002/wcms.1159

 U. Borstnik, J. VandeVondele, V. Weber, J. Hutter.
 Parallel Comput. 40, 47-58 (2014).
 Sparse matrix multiplication: The distributed block-compressed sparse row 
 library.
 https://doi.org/10.1016/j.parco.2014.03.012

 A. Marek, V. Blum, R. Johanni, V. Havu, B. Lang, T. Auckenthaler, A. Heinecke, 
 H. Bungartz, H. Lederer.
 J. Phys. Condens. Matter 26, 213201 (2014).
 The ELPA library: scalable parallel eigenvalue solutions for electronic 
 structure theory and computational science.
 https://doi.org/10.1088/0953-8984/26/21/213201

 J. VandeVondele, J. Hutter.
 J. Chem. Phys. 127, 114105 (2007).
 Gaussian basis sets for accurate calculations on molecular systems in gas and 
 condensed phases.
 https://doi.org/10.1063/1.2770708

 T. D. Khne, M. Krack, F. R. Mohamed, M. Parrinello.
 Phys. Rev. Lett. 98, 066401 (2007).
 Efficient and accurate Car-Parrinello-like approach to Born-Oppenheimer 
 molecular dynamics.
 https://doi.org/10.1103/PhysRevLett.98.066401

 J. VandeVondele, M. Krack, F. Mohamed, M. Parrinello, T. Chassaing, J. Hutter.
 Comput. Phys. Commun. 167, 103-128 (2005).
 QUICKSTEP: Fast and accurate density functional calculations using a mixed 
 Gaussian and plane waves approach.
 https://doi.org/10.1016/j.cpc.2004.12.014

 M. Krack.
 Theor. Chem. Acc. 114, 145-152 (2005).
 Pseudopotentials for H to Kr optimized for gradient-corrected 
 exchange-correlation functionals.
 https://doi.org/10.1007/s00214-005-0655-y

 M. Frigo, S. G. Johnson.
 Proc. IEEE 93, 216-231 (2005).
 The design and implementation of FFTW3.
 https://doi.org/10.1109/JPROC.2004.840301

 J. Kolafa.
 J. Comput. Chem. 25, 335-342 (2004).
 Time-reversible always stable predictor-corrector method for molecular dynamics 
 of polarizable molecules.
 https://doi.org/10.1002/jcc.10385

 J. VandeVondele, J. Hutter.
 J. Chem. Phys. 118, 4365-4369 (2003).
 An efficient orbital transformation method for electronic structure 
 calculations.
 https://doi.org/10.1063/1.1543154

 C. Hartwigsen, S. Goedecker, J. Hutter.
 Phys. Rev. B 58, 3641-3662 (1998).
 Relativistic separable dual-space Gaussian pseudopotentials from H to Rn.
 https://doi.org/10.1103/PhysRevB.58.3641

 G. Lippert, J. Hutter, M. Parrinello.
 Mol. Phys. 92, 477-487 (1997).
 A hybrid Gaussian and plane wave density functional scheme.
 https://doi.org/10.1080/002689797170220

 S. Goedecker, M. Teter, J. Hutter.
 Phys. Rev. B 54, 1703-1710 (1996).
 Separable dual-space Gaussian pseudopotentials.
 https://doi.org/10.1103/PhysRevB.54.1703

 J. P. Perdew, K. Burke, M. Ernzerhof.
 Phys. Rev. Lett. 77, 3865-3868 (1996).
 Generalized gradient approximation made simple.
 https://doi.org/10.1103/PhysRevLett.77.3865


 -------------------------------------------------------------------------------
 -                                                                             -
 -                                T I M I N G                                  -
 -                                                                             -
 -------------------------------------------------------------------------------
 SUBROUTINE                       CALLS  ASD         SELF TIME        TOTAL TIME
                                MAXIMUM       AVERAGE  MAXIMUM  AVERAGE  MAXIMUM
 CP2K                                 1  1.0    0.099    0.111  252.626  252.631
 cp_geo_opt                           1  2.0    0.003    0.005  251.655  251.658
 geoopt_bfgs                          1  3.0    0.026    0.035  251.652  251.656
 cp_eval_at                           4  4.0    0.005    0.008  250.850  250.853
 qs_energies                          4  5.8    0.006    0.009  243.081  243.087
 qs_forces                            3  5.0    0.012    0.015  232.306  232.309
 scf_env_do_scf                       4  6.8    0.004    0.007  201.531  201.533
 scf_env_do_scf_inner_loop          138  8.0    0.009    0.033  193.097  193.283
 rebuild_ks_matrix                  141  9.9    0.002    0.002  101.062  101.311
 qs_ks_build_kohn_sham_matrix       141 10.9    0.034    0.040  101.060  101.309
 qs_ks_update_qs_env                144  9.0    0.002    0.004   97.904   98.149
 sum_up_and_integrate               141 11.9    0.007    0.012   64.008   64.038
 integrate_v_rspace                 282 12.9    0.011    0.016   63.837   63.925
 qs_rho_update_rho_low              142  9.0    0.002    0.003   58.781   58.797
 calculate_rho_elec                 284 10.0    0.106    0.120   58.779   58.796
 dbcsr_multiply_generic           13146 12.7    0.464    0.502   55.823   57.361
 grid_integrate_task_list           282 13.9   46.200   47.851   46.200   47.851
 grid_collocate_task_list           284 11.0   42.290   43.983   42.290   43.983
 multiply_cannon                  13146 13.7    2.369    2.569   37.133   42.576
 qs_scf_new_mos                     138  9.0    0.001    0.001   41.843   42.192
 qs_scf_loop_do_ot                  138 10.0    0.001    0.003   41.842   42.191
 ot_scf_mini                        138 11.0    0.005    0.007   38.819   39.064
 multiply_cannon_loop             13146 14.7    0.932    1.041   31.376   36.508
 scf_post_calculation_gpw             4  6.8    0.004    0.007   36.048   36.052
 fft_wrap_pw1pw2                   4747 14.2    0.093    0.109   31.135   34.954
 fft_wrap_pw1pw2_300               3001 15.7    1.187    1.355   28.923   32.774
 qs_vxc_create                      141 11.9    0.004    0.005   29.612   29.832
 xc_vxc_pw_create                   141 12.9    0.540    0.688   29.608   29.829
 fft3d_ps                          4747 16.2    9.353   10.271   24.469   28.983
 ot_mini                            660 10.2    0.010    0.012   27.705   28.009
 xc_pw_derive                      1692 14.9    0.015    0.018   19.996   23.469
 mp_waitall_1                   1551040 16.8   16.363   23.321   16.363   23.321
 multiply_cannon_multrec         210336 15.7   13.504   22.060   13.550   22.108
 make_lumo_gpw                        4  7.8    0.001    0.002   20.441   20.443
 ot_eigensolver                       8  8.8    0.009    0.011   20.368   20.369
 qs_ot_get_derivative               541 11.9    0.004    0.004   19.912   20.087
 multiply_cannon_metrocomm3      210336 15.7    0.511    0.576   11.769   19.854
 mp_alltoall_z22v                  4747 18.2   12.542   19.584   12.542   19.584
 density_rs2pw                      284 11.0    0.017    0.021   14.981   16.560
 qs_ot_get_p                        826 10.5    0.006    0.007   15.659   16.286
 xc_rho_set_and_dset_create         141 13.9    0.484    0.774   15.361   16.228
 xc_pw_divergence                   282 13.9    0.007    0.008   13.236   15.966
 potential_pw2rs                    282 13.9    0.022    0.024   14.321   14.425
 make_m2s                         26292 13.7    0.356    0.395   11.819   12.480
 write_available_results              4  7.8    0.002    0.004   12.116   12.124
 write_mo_free_results                4  8.8    0.430    0.444   11.966   11.976
 yz_to_x                           1732 17.3    0.727    1.022    7.178   11.811
 transfer_rs2pw                    1208 11.8    0.019    0.027    9.459   10.857
 qs_ot_p2m_diag                     666 11.3    0.082    0.109   10.762   10.842
 transfer_pw2rs                    1139 14.9    0.016    0.020   10.724   10.778
 mp_waitany                       28354 15.3    7.920   10.175    7.920   10.175
 make_images                      26292 14.7    0.692    0.771    9.586   10.146
 qs_ot_get_derivative_diag          404 12.7    0.008    0.009    9.643    9.721
 x_to_yz                           1851 17.6    1.219    1.556    7.230    9.163
 cp_dbcsr_syevd                     666 12.3    0.202    0.216    8.492    8.502
 cp_fm_redistribute_end             685 14.2    4.232    8.281    4.263    8.303
 init_scf_loop                        6  7.8    0.003    0.005    8.287    8.295
 cp_fm_diag_elpa                    181 14.6    0.001    0.002    8.161    8.190
 transfer_pw2rs_300                 293 15.7    3.688    3.906    7.482    7.824
 cp_fm_diag_elpa_base               181 15.6    3.762    7.552    3.882    7.793
 transfer_rs2pw_300                 308 12.8    2.235    2.948    6.082    7.708
 mp_sum_l                         62667 13.7    4.234    7.254    4.234    7.254
 apply_preconditioner_dbcsr         569 12.9    0.002    0.002    6.464    7.159
 apply_single                       569 13.9    0.002    0.002    6.462    7.157
 multiply_cannon_metrocomm4      197190 15.7    0.492    0.571    2.366    6.483
 hirshfeld_integration                8  9.8    5.719    6.004    6.212    6.215
 mp_alltoall_d11v                 11096 15.0    4.725    6.205    4.725    6.205
 mp_irecv_dv                     427052 16.7    1.981    6.122    1.981    6.122
 ot_diis_step                       138 13.0    0.019    0.021    5.583    5.585
 xc_functional_eval                 141 14.9    0.002    0.003    4.515    5.180
 pbe_lsd_eval                       141 15.9    4.513    5.177    4.513    5.177
 -------------------------------------------------------------------------------

 The number of warnings for this run is : 3
 
 -------------------------------------------------------------------------------
  **** **** ******  **  PROGRAM ENDED AT                 2025-06-16 15:22:21.818
 ***** ** ***  *** **   PROGRAM RAN ON                                 nid002288
 **    ****   ******    PROGRAM RAN BY                                    cahart
 ***** **    ** ** **   PROGRAM PROCESS ID                                238162
  **** **  *******  **  PROGRAM STOPPED IN /mnt/lustre/a2fs-work2/work/e05/e05/c
                                           ahart/postdoc2/work/group/tio2/anatas
                                           e/cell-441/geo-opt/mp-390/hole/from-n
                                           eutral/pbe-u-o/pbe
