     192
 i =        7, E =     -5789.4657933186
Ti         0.0010830548        0.0012800556       -0.0014881169
Ti         1.8887574162        1.8886544143        4.8089187701
Ti         0.0010913382        1.8888897674        2.4019063497
Ti         1.8885966935        0.0009964777        7.2131146202
Ti         0.0012264225        3.7763536673        0.0017644510
Ti         1.8888736852       13.2378339505        4.8071756394
Ti        11.3497149523        1.8886637533        2.4034661497
Ti         5.6699472114        0.0012014973        7.2174274499
Ti         1.8887355427        3.7764855140        7.2099711845
Ti         0.0010456288       13.2371912878        2.4035336283
Ti         5.6701138041        1.8890595264        4.8045967042
Ti        11.3499170583        0.0008448149       -0.0030267190
Ti         3.7767184991        0.0010389790       -0.0045524636
Ti        13.2375608802        1.8890703078        4.8106288356
Ti        13.2374777825        0.0011217973        7.2115334584
Ti         3.7766081563        1.8885707010        2.4050448513
Ti         1.8888039647        5.6701213677        4.8130416982
Ti         0.0010434767       11.3497613800        0.0002556103
Ti         0.0010566444        5.6700570851        2.3976650170
Ti         1.8886269347       11.3501205251        7.2116604119
Ti         0.0011032222        7.5689155666        0.0045534759
Ti         1.8889423189        9.4620134691        4.8101638579
Ti         7.5688736621        1.8892195153        2.4076749380
Ti         9.4623632135        0.0011000735        7.2146482635
Ti         1.8888941334        7.5689394911        7.2073751796
Ti         0.0012093912        9.4625071927        2.4003491281
Ti         9.4624029239        1.8887919729        4.8074626967
Ti         7.5689010080        0.0011939986       -0.0071937510
Ti         3.7765416135        3.7766059546       -0.0014044253
Ti        13.2375458402       13.2374186564        4.8089510704
Ti        11.3497303074        5.6703683597        2.3993033226
Ti         5.6699898157       11.3497880578        7.2157656838
Ti        13.2374256487        3.7763429903        7.2081798795
Ti         3.7765349868       13.2375782165        2.4067385096
Ti         5.6703154776        5.6700039151        4.8087317985
Ti        11.3498355341       11.3501224196       -0.0013796908
Ti        11.3499969595       13.2377065738        2.4050230672
Ti         5.6700987657        3.7765382921        7.2142104099
Ti         3.7766294223       11.3500834324       -0.0029145699
Ti        13.2374705635        5.6698160644        4.8146790943
Ti         5.6701776231       13.2373000465        4.8029515259
Ti        11.3498594859        3.7765233606        0.0002492384
Ti        13.2375131969       11.3500994078        7.2100075531
Ti         3.7768344512        5.6704508261        2.4007226528
Ti         3.7766104634        7.5686167414        0.0014408257
Ti        13.2373164592        9.4622230198        4.8119358786
Ti         7.5687095104        5.6700400677        2.4035584529
Ti         9.4623107777       11.3501129734        7.2130816701
Ti        13.2374389431        7.5691162928        7.2056578713
Ti         3.7764819668        9.4620388775        2.4036485160
Ti         9.4622238936        5.6702515931        4.8116179421
Ti         7.5689860613       11.3497840464       -0.0055396159
Ti        11.3498259169        9.4619722123        2.4020087047
Ti         5.6700958454        7.5689078492        7.2115093393
Ti         5.6702623675        9.4623249802        4.8059402794
Ti        11.3498801537        7.5687552635        0.0030210140
Ti         9.4622615608        3.7764915678        7.2112955184
Ti         7.5687470846       13.2372324308        2.4093209905
Ti         7.5688688156        3.7763330797       -0.0039471800
Ti         9.4621979678       13.2376353267        4.8058629894
Ti         7.5688406109        7.5689792867       -0.0012133266
Ti         9.4622328372        9.4619293985        4.8088202091
Ti         7.5688100104        9.4622434630        2.4063636384
Ti         9.4621802811        7.5688833712        7.2085911602
O         0.0016839401        0.0014149320        1.9985170345
O         1.8842424476        1.8877377751        6.8047645767
O         0.0014953370        1.8838982339        4.4008129617
O         1.8878132177        0.0014619664        9.2099636873
O         1.8831975835        0.0016052427        5.2123553947
O         0.0007670595        1.8877938173        0.4071839854
O         1.8878603985        1.8836238842        2.8094296355
O         0.0014826850        0.0008071462        7.6175135319
O         0.0016684537        3.7760273773        1.9964532304
O         1.8841599395       13.2369564471        6.8046916658
O        11.3508993420        1.8841342757        4.4006871456
O         5.6723318293        0.0014818832        9.2108833821
O         1.8836627900        3.7760035752        5.2140672458
O         0.0008922562       13.2371404677        0.4066844109
O         5.6722567116        1.8837587561        2.8084531190
O        11.3509227209        0.0008723721        7.6175652633
O         3.7758986439        0.0009474427        7.6192767100
O        13.2370007403        1.8833162569        2.8092124028
O        13.2370517709        0.0015150467        9.2100791725
O         3.7759208807        1.8844409761        4.3989905353
O         1.8844344281        5.6722258462        6.8057653662
O         0.0016472200       11.3508451686        1.9981026900
O         0.0008991737        5.6722329212        0.4058422328
O         1.8832800634       11.3508280243        5.2121772038
O         0.0016509385        7.5668115661        1.9994750924
O         1.8844106799        9.4629018163        6.8030336949
O         7.5668059825        1.8842859358        4.4018238931
O         9.4627285381        0.0016068606        9.2082625328
O         1.8836460320        7.5667225451        5.2115103462
O         0.0009263384        9.4627240057        0.4086410596
O         9.4627570744        1.8837488018        2.8111956624
O         7.5667425155        0.0008166787        7.6164251572
O         3.7699948994        0.0015008884        1.9984780676
O        13.2376637462        1.8876303025        6.8045384621
O         0.0015510974        5.6557155810        4.4006038261
O         1.8878395550       11.3550016221        9.2100260205
O        13.2367834290        0.0015852864        5.2121752507
O         3.7694443659        1.8878878931        0.4066887141
O         1.8880627217        5.6551118409        2.8095744634
O         0.0015280104       11.3544257795        7.6173964425
O        11.3543170915        1.8877636086        0.4068377375
O         5.6548229089        0.0015935651        5.2124815863
O         5.6559173504        1.8879255206        6.8044984655
O        11.3553303523        0.0015692559        1.9983949656
O         1.8878809303        3.7700919649        9.2100443918
O         0.0015087456       13.2374961227        4.4008590366
O         0.0015227520        3.7695340858        7.6171394503
O         1.8877478467       13.2369427694        2.8096124959
O         3.7704826113        3.7760412124        1.9970380270
O        13.2376402314       13.2370485533        6.8046522732
O        11.3506737186        5.6558328258        4.4006218025
O         5.6722637786       11.3546799350        9.2109613331
O        13.2367669517        3.7760727217        5.2144245912
O         3.7691914642       13.2370608575        0.4066860454
O         5.6722399070        5.6562269253        2.8085444573
O        11.3508770036       11.3542511278        7.6174475554
O        11.3544115152       13.2370113734        0.4069198002
O         5.6555631194        3.7762599862        5.2142688419
O         3.7758785187       11.3540490137        7.6192159897
O        13.2369886628        5.6549367460        2.8095345707
O         5.6556295976       13.2369779973        6.8046951730
O        11.3549478933        3.7760161502        1.9967394083
O        13.2369674018       11.3551329912        9.2102204816
O         3.7761277564        5.6564109890        4.3991839362
O         5.6568333781        5.6722445066        6.8058497838
O        11.3552197633       11.3507664180        1.9985659835
O        13.2370229612        3.7699660630        9.2102653066
O         3.7759991101       13.2373539957        4.3989972256
O        11.3540978529        5.6721538704        0.4059158862
O         5.6550326444       11.3506573136        5.2127425737
O         3.7760332259        3.7699492430        7.6188897122
O        13.2371092991       13.2370325881        2.8095853872
O        13.2369225254       11.3507779745        5.2125200884
O         3.7700068557        5.6720731967        0.4057229929
O         5.6722386602       13.2370730600        2.8085974810
O        11.3507927202        3.7695548852        7.6173795376
O         3.7702542069       11.3507192545        1.9985783326
O        13.2376169082        5.6723239744        6.8058429302
O        11.3507937326       13.2374859676        4.4007440682
O         5.6721597269        3.7706372684        9.2111783940
O         3.7705995641        7.5668930763        1.9993530532
O        13.2376109676        9.4629001299        6.8028645953
O         7.5668440236        5.6568944886        4.4018321822
O         9.4627856414       11.3547077477        9.2082531552
O        13.2369703631        7.5666701969        5.2113925335
O         3.7699065460        9.4627993355        0.4080701609
O         9.4625186730        5.6556845817        2.8110479225
O         7.5667645863       11.3541440933        7.6163564070
O        11.3541870574        9.4628963308        0.4083962402
O         5.6559637424        7.5668110513        5.2113106393
O         5.6564478246        9.4625249040        6.8031001214
O        11.3548756837        7.5667868444        1.9991889277
O         9.4627358238        3.7705228389        9.2084757035
O         7.5667496569       13.2375786144        4.4016895432
O         7.5668695928        3.7700954847        7.6162562659
O         9.4628286276       13.2369569583        2.8112922009
O         7.5839851923        0.0015919664        1.9984642968
O         9.4690728180        1.8877664893        6.8048842571
O         0.0014635588        9.4692428088        4.4012384283
O         1.8879180873        7.5836116556        9.2097923684
O         9.4685618917        0.0015787444        5.2122490948
O         7.5828307796        1.8878451978        0.4071549094
O         1.8878559545        9.4685181358        2.8094987175
O         0.0015868435        7.5831560853        7.6175271603
O         7.5830735494        3.7763074939        1.9964721110
O         9.4692320742       13.2370199117        6.8049324680
O        11.3507106641        9.4692556844        4.4009283038
O         5.6722199292        7.5826124793        9.2109252584
O         9.4679909951        3.7761152127        5.2138706548
O         7.5831099884       13.2370377187        0.4069104426
O         5.6721150856        9.4680308732        2.8083154563
O        11.3506724976        7.5829929020        7.6176139132
O         3.7762078716        7.5824226206        7.6191202908
O        13.2370910925        9.4686522482        2.8092561169
O        13.2370027237        7.5837730156        9.2097859310
O         3.7760532714        9.4687336487        4.3993884959
O         9.4686301835        5.6721371386        6.8059927900
O         7.5836939825       11.3506032206        1.9980749158
O         7.5819793902        5.6722303981        0.4056326977
O         9.4684681323       11.3507229784        5.2121700137
O         7.5826701733        7.5667584444        1.9993882730
O         9.4686877558        9.4628553492        6.8034257429
O         7.5668416614        9.4685845119        4.4020245428
O         9.4625773365        7.5829769862        9.2082834968
O         9.4679801820        7.5667940265        5.2114198936
O         7.5823198110        9.4626261590        0.4085232242
O         9.4627726788        9.4682568182        2.8109825059
O         7.5667851743        7.5819905677        7.6164460326
     192
 i =        8, E =     -5789.4658395801
Ti         0.0009962961        0.0012677691       -0.0020684342
Ti         1.8887964238        1.8885442054        4.8094692609
Ti         0.0010610127        1.8889501096        2.4018909256
Ti         1.8886109289        0.0009306178        7.2130904805
Ti         0.0011813858        3.7763043044        0.0013839820
Ti         1.8888643591       13.2379305657        4.8078170916
Ti        11.3497067900        1.8884968260        2.4034060770
Ti         5.6699571090        0.0011525726        7.2175787602
Ti         1.8887645839        3.7764133212        7.2098235029
Ti         0.0010175894       13.2371273698        2.4034270758
Ti         5.6701021976        1.8890743347        4.8048952723
Ti        11.3499395822        0.0007820645       -0.0034649147
Ti         3.7765955399        0.0009482932       -0.0051713537
Ti        13.2375491611        1.8890397772        4.8111079590
Ti        13.2374965293        0.0011432310        7.2116319044
Ti         3.7764824649        1.8884986122        2.4051397618
Ti         1.8887803542        5.6701679281        4.8137261636
Ti         0.0009796989       11.3496050805       -0.0003488762
Ti         0.0009922977        5.6700219654        2.3974542354
Ti         1.8886197747       11.3500875470        7.2117519069
Ti         0.0010528273        7.5689178576        0.0041502048
Ti         1.8889528408        9.4620467145        4.8108755444
Ti         7.5688165102        1.8892055169        2.4078092501
Ti         9.4624144835        0.0010670303        7.2148658181
Ti         1.8888854193        7.5688438352        7.2072800253
Ti         0.0012245431        9.4626181526        2.4001434551
Ti         9.4624093885        1.8886587179        4.8077673932
Ti         7.5688382243        0.0012568808       -0.0077708436
Ti         3.7764058878        3.7766215979       -0.0018811096
Ti        13.2376028968       13.2374033953        4.8095267569
Ti        11.3497527595        5.6704119038        2.3990044137
Ti         5.6699856120       11.3497070485        7.2160125327
Ti        13.2375024677        3.7762968346        7.2081066426
Ti         3.7764759106       13.2376589202        2.4067016239
Ti         5.6702869584        5.6699725272        4.8091744148
Ti        11.3498306138       11.3500838166       -0.0019237876
Ti        11.3499874289       13.2378230612        2.4048450864
Ti         5.6700556894        3.7764780601        7.2142282056
Ti         3.7764746934       11.3500473528       -0.0036260594
Ti        13.2374873807        5.6697490155        4.8152740838
Ti         5.6701561615       13.2372711011        4.8033148846
Ti        11.3498392665        3.7765456125       -0.0000870821
Ti        13.2375785230       11.3500056978        7.2101791557
Ti         3.7767964617        5.6704908991        2.4005951965
Ti         3.7765216653        7.5685502756        0.0009964463
Ti        13.2373647573        9.4623709818        4.8125829647
Ti         7.5686418939        5.6699416126        2.4034846219
Ti         9.4623928020       11.3500329583        7.2134140365
Ti        13.2375386762        7.5690312737        7.2056827604
Ti         3.7764300048        9.4619955946        2.4035453580
Ti         9.4622044192        5.6702689624        4.8120760285
Ti         7.5689092706       11.3496694383       -0.0061789501
Ti        11.3497506042        9.4620190467        2.4017523940
Ti         5.6700380629        7.5688916827        7.2116133275
Ti         5.6701766311        9.4624214511        4.8063783267
Ti        11.3498700641        7.5686221175        0.0027167087
Ti         9.4623104288        3.7764772225        7.2114059028
Ti         7.5686059591       13.2371981323        2.4093715784
Ti         7.5687910883        3.7763214584       -0.0043909637
Ti         9.4622132199       13.2377294117        4.8062468023
Ti         7.5687282181        7.5689537197       -0.0016761217
Ti         9.4622631567        9.4619860236        4.8092690473
Ti         7.5687233503        9.4623486965        2.4062978007
Ti         9.4622550538        7.5687812081        7.2087360056
O         0.0017145943        0.0012921785        1.9993953249
O         1.8844875898        1.8876648309        6.8045666231
O         0.0013422968        1.8843554922        4.4014583535
O         1.8875900895        0.0016187404        9.2099716681
O         1.8834167352        0.0014912461        5.2122113140
O         0.0008588405        1.8877741148        0.4065928709
O         1.8877954215        1.8837091856        2.8084702825
O         0.0014641519        0.0009043770        7.6178891685
O         0.0018351181        3.7756072009        1.9975225966
O         1.8844651917       13.2369604251        6.8044332935
O        11.3508077724        1.8845093716        4.4013591375
O         5.6723988092        0.0017237263        9.2109458300
O         1.8836442739        3.7756595682        5.2136679984
O         0.0008390550       13.2371848121        0.4062185288
O         5.6724407196        1.8838620819        2.8073952341
O        11.3509918004        0.0008632223        7.6178825216
O         3.7756558074        0.0009956388        7.6194537384
O        13.2371905373        1.8836364330        2.8082875519
O        13.2370820012        0.0015359248        9.2099541937
O         3.7755409305        1.8845883064        4.3997181206
O         1.8846782721        5.6723270737        6.8056303794
O         0.0017386958       11.3508744604        1.9989648234
O         0.0009482993        5.6725015854        0.4052514465
O         1.8834940665       11.3509768512        5.2119553504
O         0.0018751301        7.5665454379        2.0004373362
O         1.8847047201        9.4630927199        6.8029533940
O         7.5664862509        1.8846515600        4.4026390058
O         9.4630143661        0.0017204073        9.2084134842
O         1.8836947455        7.5665999568        5.2111751494
O         0.0009437725        9.4630337902        0.4081726015
O         9.4631739487        1.8839161418        2.8101023254
O         7.5665773082        0.0009417592        7.6166962271
O         3.7704097238        0.0014323441        1.9992059021
O        13.2376135971        1.8876097941        6.8043452770
O         0.0014372657        5.6556729237        4.4012254791
O         1.8876435116       11.3548921430        9.2099663114
O        13.2367541664        0.0014469608        5.2120343994
O         3.7697141360        1.8878754553        0.4062053078
O         1.8880019725        5.6546964060        2.8085518356
O         0.0014978568       11.3542143188        7.6177568208
O        11.3539262339        1.8878311618        0.4063126973
O         5.6541724703        0.0015428221        5.2122161046
O         5.6559899084        1.8878357815        6.8043958469
O        11.3550644299        0.0013697890        1.9992308212
O         1.8877270252        3.7703616058        9.2099062154
O         0.0013357421       13.2374857991        4.4015079051
O         0.0015520908        3.7695416577        7.6175817930
O         1.8877617629       13.2368808388        2.8086188573
O         3.7709902049        3.7756301819        1.9979604650
O        13.2375765714       13.2370466026        6.8044694380
O        11.3506284787        5.6559220250        4.4013067348
O         5.6723132052       11.3547413386        9.2110916510
O        13.2365876031        3.7756960660        5.2140564754
O         3.7694993542       13.2370701378        0.4062836648
O         5.6724336510        5.6558150707        2.8075866420
O        11.3509779665       11.3541522843        7.6177975058
O        11.3540361265       13.2370758162        0.4065318369
O         5.6551259859        3.7759413106        5.2138721408
O         3.7756042733       11.3539317989        7.6194243863
O        13.2371118849        5.6544131238        2.8086111233
O         5.6556218147       13.2369432827        6.8045013160
O        11.3547986805        3.7755038424        1.9977793296
O        13.2370128274       11.3550392047        9.2101160686
O         3.7757074352        5.6564778660        4.3999504793
O         5.6569434538        5.6723826479        6.8057399797
O        11.3550289439       11.3508716031        1.9994224129
O        13.2370150452        3.7701448233        9.2101097850
O         3.7755339049       13.2374061440        4.3997799047
O        11.3538647951        5.6723630748        0.4053458357
O         5.6545603833       11.3507751444        5.2124606518
O         3.7757599018        3.7700880775        7.6192142482
O        13.2372546174       13.2368941993        2.8086206994
O        13.2367381802       11.3509732381        5.2122783465
O         3.7701744896        5.6722972251        0.4052543968
O         5.6724490912       13.2367740081        2.8075310732
O        11.3508958953        3.7696529479        7.6177018428
O         3.7706692867       11.3507475468        1.9993288149
O        13.2374863633        5.6724603626        6.8057141715
O        11.3507930005       13.2375044209        4.4015512724
O         5.6722183727        3.7709334649        9.2111634512
O         3.7710535383        7.5666220309        2.0001927394
O        13.2374750244        9.4630256531        6.8027876352
O         7.5665484419        5.6569254292        4.4025242476
O         9.4630472952       11.3547376382        9.2083824451
O        13.2365759196        7.5665754245        5.2110364254
O         3.7700626236        9.4631077927        0.4076112468
O         9.4629258019        5.6552733038        2.8099838838
O         7.5666128315       11.3539862584        7.6165376631
O        11.3538888008        9.4631595301        0.4078900877
O         5.6555622994        7.5666921636        5.2110648653
O         5.6565517545        9.4627336415        6.8029730707
O        11.3548248271        7.5665808257        2.0001543177
O         9.4629691833        3.7707788802        9.2085715485
O         7.5664519199       13.2374111198        4.4025350581
O         7.5666854137        3.7701223698        7.6164666526
O         9.4631919693       13.2367763311        2.8101032021
O         7.5844791079        0.0014253196        1.9993422032
O         9.4689053738        1.8877398870        6.8046504144
O         0.0013582262        9.4690078494        4.4017981270
O         1.8878010712        7.5839325469        9.2098843925
O         9.4682572827        0.0014939515        5.2122527027
O         7.5826442997        1.8879258324        0.4066287185
O         1.8878857948        9.4680699849        2.8086745029
O         0.0015835193        7.5831479238        7.6178360932
O         7.5834419824        3.7758258363        1.9974836013
O         9.4690578664       13.2369564542        6.8045948608
O        11.3507465688        9.4687960740        4.4015618787
O         5.6722928067        7.5828601256        9.2109933448
O         9.4675685981        3.7757550609        5.2136399244
O         7.5829655715       13.2370951331        0.4064468219
O         5.6723371791        9.4676093558        2.8073990431
O        11.3508061466        7.5829374873        7.6177350608
O         3.7758802560        7.5822924093        7.6192465071
O        13.2371627243        9.4682373568        2.8084582208
O        13.2369996365        7.5841972703        9.2098248272
O         3.7755873499        9.4684703932        4.4000180706
O         9.4684808104        5.6722472140        6.8057568295
O         7.5841051851       11.3506941083        1.9990070656
O         7.5818152332        5.6724731074        0.4050790781
O         9.4680205527       11.3509083073        5.2120768476
O         7.5830256459        7.5665292969        2.0003091165
O         9.4684793324        9.4629795097        6.8032184910
O         7.5665389798        9.4683735666        4.4027349084
O         9.4628005125        7.5833248911        9.2085723573
O         9.4675403804        7.5666945962        5.2112638409
O         7.5822036082        9.4628641277        0.4079763467
O         9.4630850969        9.4676869238        2.8099955450
O         7.5666203923        7.5819051591        7.6165760457
     192
 i =        9, E =     -5789.4658434185
Ti         0.0009962961        0.0012677691       -0.0020684342
Ti         1.8887964238        1.8885442054        4.8094692609
Ti         0.0010610127        1.8889501096        2.4018909256
Ti         1.8886109289        0.0009306178        7.2130904805
Ti         0.0011813858        3.7763043044        0.0013839820
Ti         1.8888643591       13.2379305657        4.8078170916
Ti        11.3497067900        1.8884968260        2.4034060770
Ti         5.6699571090        0.0011525726        7.2175787602
Ti         1.8887645839        3.7764133212        7.2098235029
Ti         0.0010175894       13.2371273698        2.4034270758
Ti         5.6701021976        1.8890743347        4.8048952723
Ti        11.3499395822        0.0007820645       -0.0034649147
Ti         3.7765955399        0.0009482932       -0.0051713537
Ti        13.2375491611        1.8890397772        4.8111079590
Ti        13.2374965293        0.0011432310        7.2116319044
Ti         3.7764824649        1.8884986122        2.4051397618
Ti         1.8887803542        5.6701679281        4.8137261636
Ti         0.0009796989       11.3496050805       -0.0003488762
Ti         0.0009922977        5.6700219654        2.3974542354
Ti         1.8886197747       11.3500875470        7.2117519069
Ti         0.0010528273        7.5689178576        0.0041502048
Ti         1.8889528408        9.4620467145        4.8108755444
Ti         7.5688165102        1.8892055169        2.4078092501
Ti         9.4624144835        0.0010670303        7.2148658181
Ti         1.8888854193        7.5688438352        7.2072800253
Ti         0.0012245431        9.4626181526        2.4001434551
Ti         9.4624093885        1.8886587179        4.8077673932
Ti         7.5688382243        0.0012568808       -0.0077708436
Ti         3.7764058878        3.7766215979       -0.0018811096
Ti        13.2376028968       13.2374033953        4.8095267569
Ti        11.3497527595        5.6704119038        2.3990044137
Ti         5.6699856120       11.3497070485        7.2160125327
Ti        13.2375024677        3.7762968346        7.2081066426
Ti         3.7764759106       13.2376589202        2.4067016239
Ti         5.6702869584        5.6699725272        4.8091744148
Ti        11.3498306138       11.3500838166       -0.0019237876
Ti        11.3499874289       13.2378230612        2.4048450864
Ti         5.6700556894        3.7764780601        7.2142282056
Ti         3.7764746934       11.3500473528       -0.0036260594
Ti        13.2374873807        5.6697490155        4.8152740838
Ti         5.6701561615       13.2372711011        4.8033148846
Ti        11.3498392665        3.7765456125       -0.0000870821
Ti        13.2375785230       11.3500056978        7.2101791557
Ti         3.7767964617        5.6704908991        2.4005951965
Ti         3.7765216653        7.5685502756        0.0009964463
Ti        13.2373647573        9.4623709818        4.8125829647
Ti         7.5686418939        5.6699416126        2.4034846219
Ti         9.4623928020       11.3500329583        7.2134140365
Ti        13.2375386762        7.5690312737        7.2056827604
Ti         3.7764300048        9.4619955946        2.4035453580
Ti         9.4622044192        5.6702689624        4.8120760285
Ti         7.5689092706       11.3496694383       -0.0061789501
Ti        11.3497506042        9.4620190467        2.4017523940
Ti         5.6700380629        7.5688916827        7.2116133275
Ti         5.6701766311        9.4624214511        4.8063783267
Ti        11.3498700641        7.5686221175        0.0027167087
Ti         9.4623104288        3.7764772225        7.2114059028
Ti         7.5686059591       13.2371981323        2.4093715784
Ti         7.5687910883        3.7763214584       -0.0043909637
Ti         9.4622132199       13.2377294117        4.8062468023
Ti         7.5687282181        7.5689537197       -0.0016761217
Ti         9.4622631567        9.4619860236        4.8092690473
Ti         7.5687233503        9.4623486965        2.4062978007
Ti         9.4622550538        7.5687812081        7.2087360056
O         0.0017145943        0.0012921785        1.9993953249
O         1.8844875898        1.8876648309        6.8045666231
O         0.0013422968        1.8843554922        4.4014583535
O         1.8875900895        0.0016187404        9.2099716681
O         1.8834167352        0.0014912461        5.2122113140
O         0.0008588405        1.8877741148        0.4065928709
O         1.8877954215        1.8837091856        2.8084702825
O         0.0014641519        0.0009043770        7.6178891685
O         0.0018351181        3.7756072009        1.9975225966
O         1.8844651917       13.2369604251        6.8044332935
O        11.3508077724        1.8845093716        4.4013591375
O         5.6723988092        0.0017237263        9.2109458300
O         1.8836442739        3.7756595682        5.2136679984
O         0.0008390550       13.2371848121        0.4062185288
O         5.6724407196        1.8838620819        2.8073952341
O        11.3509918004        0.0008632223        7.6178825216
O         3.7756558074        0.0009956388        7.6194537384
O        13.2371905373        1.8836364330        2.8082875519
O        13.2370820012        0.0015359248        9.2099541937
O         3.7755409305        1.8845883064        4.3997181206
O         1.8846782721        5.6723270737        6.8056303794
O         0.0017386958       11.3508744604        1.9989648234