 DBCSR| CPU Multiplication driver                                           XSMM (U)
 DBCSR| Multrec recursion limit                                              512 (U)
 DBCSR| Multiplication stack size                                           1000 (D)
 DBCSR| Maximum elements for images                                    UNLIMITED (U)
 DBCSR| Multiplicative factor virtual images                                   1 (U)
 DBCSR| Use multiplication densification                                       T (D)
 DBCSR| Multiplication size stacks                                             3 (U)
 DBCSR| Use memory pool for CPU allocation                                     F (U)
 DBCSR| Number of 3D layers                                               SINGLE (U)
 DBCSR| Use MPI memory allocation                                              F (U)
 DBCSR| Use RMA algorithm                                                      F (U)
 DBCSR| Use Communication thread                                               T (U)
 DBCSR| Communication thread load                                             87 (D)
 DBCSR| MPI: My process id                                                     0
 DBCSR| MPI: Number of processes                                             128
 DBCSR| OMP: Current number of threads                                         1
 DBCSR| OMP: Max number of threads                                             1
 DBCSR| Split modifier for TAS multiplication algorithm                  1.0E+00 (U)


  **** **** ******  **  PROGRAM STARTED AT               2025-06-22 05:07:01.720
 ***** ** ***  *** **   PROGRAM STARTED ON                             nid002397
 **    ****   ******    PROGRAM STARTED BY                                cahart
 ***** **    ** ** **   PROGRAM PROCESS ID                                 32475
  **** **  *******  **  PROGRAM STARTED IN /mnt/lustre/a2fs-work2/work/e05/e05/c
                                           ahart/postdoc2/work/group/tio2/anatas
                                           e/cell-441/geo-opt/mp-390/neutral-fro
                                           m-hole/pbe-u-o/u-2.0

 CP2K| version string:                                       CP2K version 2024.3
 CP2K| source code revision number:                                  git:6712648
 CP2K| cp2kflags: omp libint fftw3 libxc libgrpp elpa parallel scalapack cosma x
 CP2K|            smm plumed2 spglib mkl sirius libvori libbqb libvdwxc hdf5
 CP2K| is freely available from                            https://www.cp2k.org/
 CP2K| Program compiled at                       Thu 12 Sep 2024 10:20:47 AM BST
 CP2K| Program compiled on                                                  ln04
 CP2K| Program compiled for                                                local
 CP2K| Data directory path    /mnt/lustre/a2fs-work1/work/y07/shared/apps/core/c
 CP2K| Input file name                                                 input.inp

 GLOBAL| Force Environment number                                              1
 GLOBAL| Basis set file name                                        BASIS_MOLOPT
 GLOBAL| Potential file name                                      GTH_POTENTIALS
 GLOBAL| MM Potential file name                                     MM_POTENTIAL
 GLOBAL| Coordinate file name                                         system.xyz
 GLOBAL| Method name                                                        CP2K
 GLOBAL| Project name                                                       tio2
 GLOBAL| Run type                                                         ENERGY
 GLOBAL| FFT library                                                       FFTW3
 GLOBAL| Diagonalization library                                            ELPA
 GLOBAL| DGEMM library                                                      BLAS
 GLOBAL| Minimum number of eigenvectors for ELPA usage                        16
 GLOBAL| Orthonormality check for eigenvectors                          DISABLED
 GLOBAL| Matrix multiplication library                                     COSMA
 GLOBAL| All-to-all communication in single precision                          F
 GLOBAL| FFTs using library dependent lengths                                  F
 GLOBAL| Grid backend                                                       AUTO
 GLOBAL| Global print level                                               MEDIUM
 GLOBAL| MPI I/O enabled                                                       T
 GLOBAL| Total number of message passing processes                           128
 GLOBAL| Number of threads for this process                                    1
 GLOBAL| This output is from process                                           0
 GLOBAL| Stack size for threads created by OpenMP (OMP_STACKSIZE)        default
 GLOBAL| CPU model name                          AMD EPYC 7742 64-Core Processor
 GLOBAL| CPUID                                                              1002

 MEMORY| system memory details [Kb]
 MEMORY|                        rank 0           min           max       average
 MEMORY| MemTotal            263341976     263341976     263341976     263341976
 MEMORY| MemFree             234586180     234586180     234588196     234586630
 MEMORY| Buffers                     0             0             0             0
 MEMORY| Cached                1760072       1758180       1760072       1759910
 MEMORY| Slab                  6044004       6043864       6044004       6043986
 MEMORY| SReclaimable           913604        913592        913604        913603
 MEMORY| MemLikelyFree       237259856     237259856     237261348     237260145


 *** Fundamental physical constants (SI units) ***

 *** Literature: B. J. Mohr and B. N. Taylor,
 ***             CODATA recommended values of the fundamental physical
 ***             constants: 2006, Web Version 5.1
 ***             http://physics.nist.gov/constants

 Speed of light in vacuum [m/s]                             2.99792458000000E+08
 Magnetic constant or permeability of vacuum [N/A**2]       1.25663706143592E-06
 Electric constant or permittivity of vacuum [F/m]          8.85418781762039E-12
 Planck constant (h) [J*s]                                  6.62606896000000E-34
 Planck constant (h-bar) [J*s]                              1.05457162825177E-34
 Elementary charge [C]                                      1.60217648700000E-19
 Electron mass [kg]                                         9.10938215000000E-31
 Electron g factor [ ]                                     -2.00231930436220E+00
 Proton mass [kg]                                           1.67262163700000E-27
 Fine-structure constant                                    7.29735253760000E-03
 Rydberg constant [1/m]                                     1.09737315685270E+07
 Avogadro constant [1/mol]                                  6.02214179000000E+23
 Boltzmann constant [J/K]                                   1.38065040000000E-23
 Atomic mass unit [kg]                                      1.66053878200000E-27
 Bohr radius [m]                                            5.29177208590000E-11

 *** Conversion factors ***

 [u] -> [a.u.]                                              1.82288848426455E+03
 [Angstrom] -> [Bohr] = [a.u.]                              1.88972613288564E+00
 [a.u.] = [Bohr] -> [Angstrom]                              5.29177208590000E-01
 [a.u.] -> [s]                                              2.41888432650478E-17
 [a.u.] -> [fs]                                             2.41888432650478E-02
 [a.u.] -> [J]                                              4.35974393937059E-18
 [a.u.] -> [N]                                              8.23872205491840E-08
 [a.u.] -> [K]                                              3.15774647902944E+05
 [a.u.] -> [kJ/mol]                                         2.62549961709828E+03
 [a.u.] -> [kcal/mol]                                       6.27509468713739E+02
 [a.u.] -> [Pa]                                             2.94210107994716E+13
 [a.u.] -> [bar]                                            2.94210107994716E+08
 [a.u.] -> [atm]                                            2.90362800883016E+08
 [a.u.] -> [eV]                                             2.72113838565563E+01
 [a.u.] -> [Hz]                                             6.57968392072181E+15
 [a.u.] -> [1/cm] (wave numbers)                            2.19474631370540E+05
 [a.u./Bohr**2] -> [1/cm]                                   5.14048714338585E+03
 

 CELL_TOP| Volume [angstrom^3]:                                      2198.132028
 CELL_TOP| Vector a [angstrom    15.120     0.000     0.000   |a| =    15.120000
 CELL_TOP| Vector b [angstrom     0.000    15.120     0.000   |b| =    15.120000
 CELL_TOP| Vector c [angstrom     0.000     0.000     9.615   |c| =     9.615020
 CELL_TOP| Angle (b,c), alpha [degree]:                                90.000000
 CELL_TOP| Angle (a,c), beta  [degree]:                                90.000000
 CELL_TOP| Angle (a,b), gamma [degree]:                                90.000000
 CELL_TOP| Requested initial symmetry:                       MONOCLINIC_GAMMA_AB
 CELL_TOP| Numerically orthorhombic:                                         YES
 CELL_TOP| Periodicity                                                       XYZ

 *** WARNING in atoms_input.F:123 :: Overwriting coordinates. Active    ***
 *** coordinates read from &COORD section. Active coordinates READ from ***
 *** &COORD section                                                     ***


 GENERATE|  Preliminary Number of Bonds generated:                             0
 GENERATE|  Achieved consistency in connectivity generation.

 CELL| Volume [angstrom^3]:                                          2198.132028
 CELL| Vector a [angstrom]:      15.120     0.000     0.000   |a| =    15.120000
 CELL| Vector b [angstrom]:       0.000    15.120     0.000   |b| =    15.120000
 CELL| Vector c [angstrom]:       0.000     0.000     9.615   |c| =     9.615020
 CELL| Angle (b,c), alpha [degree]:                                    90.000000
 CELL| Angle (a,c), beta  [degree]:                                    90.000000
 CELL| Angle (a,b), gamma [degree]:                                    90.000000
 CELL| Requested initial symmetry:                           MONOCLINIC_GAMMA_AB
 CELL| Numerically orthorhombic:                                             YES
 CELL| Periodicity                                                           XYZ

 CELL_REF| Volume [angstrom^3]:                                      2198.132028
 CELL_REF| Vector a [angstrom    15.120     0.000     0.000   |a| =    15.120000
 CELL_REF| Vector b [angstrom     0.000    15.120     0.000   |b| =    15.120000
 CELL_REF| Vector c [angstrom     0.000     0.000     9.615   |c| =     9.615020
 CELL_REF| Angle (b,c), alpha [degree]:                                90.000000
 CELL_REF| Angle (a,c), beta  [degree]:                                90.000000
 CELL_REF| Angle (a,b), gamma [degree]:                                90.000000
 CELL_REF| Requested initial symmetry:                       MONOCLINIC_GAMMA_AB
 CELL_REF| Numerically orthorhombic:                                         YES
 CELL_REF| Periodicity                                                       XYZ

 *******************************************************************************
 *******************************************************************************
 **                                                                           **
 **     #####                         ##              ##                      **
 **    ##   ##            ##          ##              ##                      **
 **   ##     ##                       ##            ######                    **
 **   ##     ##  ##   ##  ##   #####  ##  ##   ####   ##    #####    #####    **
 **   ##     ##  ##   ##  ##  ##      ## ##   ##      ##   ##   ##  ##   ##   **
 **   ##  ## ##  ##   ##  ##  ##      ####     ###    ##   ######   ######    **
 **    ##  ###   ##   ##  ##  ##      ## ##      ##   ##   ##       ##        **
 **     #######   #####   ##   #####  ##  ##  ####    ##    #####   ##        **
 **           ##                                                    ##        **
 **                                                                           **
 **                                                ... make the atoms dance   **
 **                                                                           **
 **            Copyright (C) by CP2K developers group (2000-2024)             **
 **                      J. Chem. Phys. 152, 194103 (2020)                    **
 **                                                                           **
 *******************************************************************************

 DFT| Spin unrestricted (spin-polarized) Kohn-Sham calculation               UKS
 DFT| Multiplicity                                                             1
 DFT| Number of spin states                                                    2
 DFT| Charge                                                                   0
 DFT| Self-interaction correction (SIC)                                       NO
 DFT| Cutoffs: density                                              1.000000E-10
 DFT|          gradient                                             1.000000E-10
 DFT|          tau                                                  1.000000E-10
 DFT|          cutoff_smoothing_range                               0.000000E+00
 DFT| XC density smoothing                                                  NONE
 DFT| XC derivatives                                                          PW

 DFT+U| Method                                                          MULLIKEN
 DFT+U| Check atomic kind information for details

 FUNCTIONAL| PBE:
 FUNCTIONAL| J.P.Perdew, K.Burke, M.Ernzerhof, Phys. Rev. Letter, vol. 77, n 18,
 FUNCTIONAL|  pp. 3865-3868, (1996) {spin polarized}                            


 QS| Method:                                                                 GPW
 QS| Density plane wave grid type                        NON-SPHERICAL FULLSPACE
 QS| Number of grid levels:                                                    4
 QS| Density cutoff [a.u.]:                                                300.0
 QS| Multi grid cutoff [a.u.]: 1) grid level                               300.0
 QS|                           2) grid level                               100.0
 QS|                           3) grid level                                33.3
 QS|                           4) grid level                                11.1
 QS| Grid level progression factor:                                          3.0
 QS| Relative density cutoff [a.u.]:                                        20.0
 QS| Interaction thresholds: eps_pgf_orb:                                1.0E-06
 QS|                         eps_filter_matrix:                          0.0E+00
 QS|                         eps_core_charge:                            1.0E-14
 QS|                         eps_rho_gspace:                             1.0E-12
 QS|                         eps_rho_rspace:                             1.0E-12
 QS|                         eps_gvg_rspace:                             1.0E-06
 QS|                         eps_ppl:                                    1.0E-02
 QS|                         eps_ppnl:                                   1.0E-08


 ATOMIC KIND INFORMATION

  1. Atomic kind: Ti                                    Number of atoms:      64

     Orbital Basis Set                                    DZVP-MOLOPT-SR-GTH-q12

       Number of orbital shell sets:                                           1
       Number of orbital shells:                                               8
       Number of primitive Cartesian functions:                                6
       Number of Cartesian basis functions:                                   31
       Number of spherical basis functions:                                   26
       Norm type:                                                              2

       Normalised Cartesian orbitals:

                        Set   Shell   Orbital            Exponent    Coefficient

                          1       1    2s                7.884570       0.015554
                                                         3.894698       0.963603
                                                         1.513589      -0.631435
                                                         0.596768      -0.343022
                                                         0.222222      -0.006534
                                                         0.077078       0.007652

                          1       2    3s                7.884570      -0.009340
                                                         3.894698       0.212624
                                                         1.513589      -0.258368
                                                         0.596768      -0.226206
                                                         0.222222       0.039438
                                                         0.077078       0.107179

                          1       3    4s                7.884570       0.276563
                                                         3.894698       0.105452
                                                         1.513589       0.085149
                                                         0.596768       0.882541
                                                         0.222222      -0.696223
                                                         0.077078       0.156638

                          1       4    3px               7.884570      -2.034794
                                                         3.894698       0.782008
                                                         1.513589       1.253903
                                                         0.596768       0.347823
                                                         0.222222       0.016778
                                                         0.077078      -0.000433
                          1       4    3py               7.884570      -2.034794
                                                         3.894698       0.782008
                                                         1.513589       1.253903
                                                         0.596768       0.347823
                                                         0.222222       0.016778
                                                         0.077078      -0.000433
                          1       4    3pz               7.884570      -2.034794
                                                         3.894698       0.782008
                                                         1.513589       1.253903
                                                         0.596768       0.347823
                                                         0.222222       0.016778
                                                         0.077078      -0.000433

                          1       5    4px               7.884570       0.376572
                                                         3.894698      -0.182875
                                                         1.513589      -0.474776
                                                         0.596768      -0.081757
                                                         0.222222       0.064432
                                                         0.077078       0.047279
                          1       5    4py               7.884570       0.376572
                                                         3.894698      -0.182875
                                                         1.513589      -0.474776
                                                         0.596768      -0.081757
                                                         0.222222       0.064432
                                                         0.077078       0.047279
                          1       5    4pz               7.884570       0.376572
                                                         3.894698      -0.182875
                                                         1.513589      -0.474776
                                                         0.596768      -0.081757
                                                         0.222222       0.064432
                                                         0.077078       0.047279

                          1       6    4dx2              7.884570       3.047350
                                                         3.894698       3.289529
                                                         1.513589       1.060616
                                                         0.596768       0.249930
                                                         0.222222       0.038806
                                                         0.077078       0.002319
                          1       6    4dxy              7.884570       5.278165
                                                         3.894698       5.697631
                                                         1.513589       1.837041
                                                         0.596768       0.432892
                                                         0.222222       0.067214
                                                         0.077078       0.004017
                          1       6    4dxz              7.884570       5.278165
                                                         3.894698       5.697631
                                                         1.513589       1.837041
                                                         0.596768       0.432892
                                                         0.222222       0.067214
                                                         0.077078       0.004017
                          1       6    4dy2              7.884570       3.047350
                                                         3.894698       3.289529
                                                         1.513589       1.060616
                                                         0.596768       0.249930
                                                         0.222222       0.038806
                                                         0.077078       0.002319
                          1       6    4dyz              7.884570       5.278165
                                                         3.894698       5.697631
                                                         1.513589       1.837041
                                                         0.596768       0.432892
                                                         0.222222       0.067214
                                                         0.077078       0.004017
                          1       6    4dz2              7.884570       3.047350
                                                         3.894698       3.289529
                                                         1.513589       1.060616
                                                         0.596768       0.249930
                                                         0.222222       0.038806
                                                         0.077078       0.002319

                          1       7    5dx2              7.884570      -2.119015
                                                         3.894698      -1.237751
                                                         1.513589      -0.746777
                                                         0.596768      -0.071514
                                                         0.222222       0.004086
                                                         0.077078       0.017595
                          1       7    5dxy              7.884570      -3.670241
                                                         3.894698      -2.143848
                                                         1.513589      -1.293455
                                                         0.596768      -0.123865
                                                         0.222222       0.007077
                                                         0.077078       0.030475
                          1       7    5dxz              7.884570      -3.670241
                                                         3.894698      -2.143848
                                                         1.513589      -1.293455
                                                         0.596768      -0.123865
                                                         0.222222       0.007077
                                                         0.077078       0.030475
                          1       7    5dy2              7.884570      -2.119015
                                                         3.894698      -1.237751
                                                         1.513589      -0.746777
                                                         0.596768      -0.071514
                                                         0.222222       0.004086
                                                         0.077078       0.017595
                          1       7    5dyz              7.884570      -3.670241
                                                         3.894698      -2.143848
                                                         1.513589      -1.293455
                                                         0.596768      -0.123865
                                                         0.222222       0.007077
                                                         0.077078       0.030475
                          1       7    5dz2              7.884570      -2.119015
                                                         3.894698      -1.237751
                                                         1.513589      -0.746777
                                                         0.596768      -0.071514
                                                         0.222222       0.004086
                                                         0.077078       0.017595

                          1       8    5fx3              7.884570      -0.342058
                                                         3.894698       0.375798
                                                         1.513589      -0.706469
                                                         0.596768      -0.229994
                                                         0.222222      -0.012723
                                                         0.077078       0.003932
                          1       8    5fx2y             7.884570      -0.764866
                                                         3.894698       0.840310
                                                         1.513589      -1.579712
                                                         0.596768      -0.514282
                                                         0.222222      -0.028450
                                                         0.077078       0.008792
                          1       8    5fx2z             7.884570      -0.764866
                                                         3.894698       0.840310
                                                         1.513589      -1.579712
                                                         0.596768      -0.514282
                                                         0.222222      -0.028450
                                                         0.077078       0.008792
                          1       8    5fxy2             7.884570      -0.764866
                                                         3.894698       0.840310
                                                         1.513589      -1.579712
                                                         0.596768      -0.514282
                                                         0.222222      -0.028450
                                                         0.077078       0.008792
                          1       8    5fxyz             7.884570      -1.324787
                                                         3.894698       1.455460
                                                         1.513589      -2.736142
                                                         0.596768      -0.890763
                                                         0.222222      -0.049276
                                                         0.077078       0.015229
                          1       8    5fxz2             7.884570      -0.764866
                                                         3.894698       0.840310
                                                         1.513589      -1.579712
                                                         0.596768      -0.514282
                                                         0.222222      -0.028450
                                                         0.077078       0.008792
                          1       8    5fy3              7.884570      -0.342058
                                                         3.894698       0.375798
                                                         1.513589      -0.706469
                                                         0.596768      -0.229994
                                                         0.222222      -0.012723
                                                         0.077078       0.003932
                          1       8    5fy2z             7.884570      -0.764866
                                                         3.894698       0.840310
                                                         1.513589      -1.579712
                                                         0.596768      -0.514282
                                                         0.222222      -0.028450
                                                         0.077078       0.008792
                          1       8    5fyz2             7.884570      -0.764866
                                                         3.894698       0.840310
                                                         1.513589      -1.579712
                                                         0.596768      -0.514282
                                                         0.222222      -0.028450
                                                         0.077078       0.008792
                          1       8    5fz3              7.884570      -0.342058
                                                         3.894698       0.375798
                                                         1.513589      -0.706469
                                                         0.596768      -0.229994
                                                         0.222222      -0.012723
                                                         0.077078       0.003932

       Atomic covalent radius [Angstrom]:                                  1.320

       Atomic van der Waals radius [Angstrom]:                             1.760

     GTH Potential information for                                   GTH-PBE-q12

       Description:                       Goedecker-Teter-Hutter pseudopotential
                                           Goedecker et al., PRB 54, 1703 (1996)
                                          Hartwigsen et al., PRB 58, 3641 (1998)
                                                      Krack, TCA 114, 145 (2005)

       Gaussian exponent of the core charge distribution:               3.462604
       Electronic configuration (s p d ...):                           4   6   2

       Parameters of the local part of the GTH pseudopotential:

                          rloc        C1          C2          C3          C4
                        0.380000    8.711442   -0.700287

       Parameters of the non-local part of the GTH pseudopotential:

                   l      r(l)      h(i,j,l)

                   0    0.337771    2.575264    3.692971
                                    3.692971   -4.767605
                   1    0.242531   -4.630541    8.870875
                                    8.870875  -10.496161
                   2    0.243317   -9.406653

  2. Atomic kind: O                                     Number of atoms:     128

     Orbital Basis Set                                     DZVP-MOLOPT-SR-GTH-q6

       Number of orbital shell sets:                                           1
       Number of orbital shells:                                               5
       Number of primitive Cartesian functions:                                5
       Number of Cartesian basis functions:                                   14
       Number of spherical basis functions:                                   13
       Norm type:                                                              2

       Normalised Cartesian orbitals:

                        Set   Shell   Orbital            Exponent    Coefficient

                          1       1    2s               10.389228       0.396646
                                                         3.849621       0.208811
                                                         1.388401      -0.301641
                                                         0.496955      -0.274061
                                                         0.162492      -0.033677

                          1       2    3s               10.389228       0.303673
                                                         3.849621       0.240943
                                                         1.388401      -0.313066
                                                         0.496955      -0.043055
                                                         0.162492       0.213991

                          1       3    3px              10.389228      -1.530415
                                                         3.849621      -1.371928
                                                         1.388401      -0.761951
                                                         0.496955      -0.253695
                                                         0.162492      -0.035541
                          1       3    3py              10.389228      -1.530415
                                                         3.849621      -1.371928
                                                         1.388401      -0.761951
                                                         0.496955      -0.253695
                                                         0.162492      -0.035541
                          1       3    3pz              10.389228      -1.530415
                                                         3.849621      -1.371928
                                                         1.388401      -0.761951
                                                         0.496955      -0.253695
                                                         0.162492      -0.035541

                          1       4    4px              10.389228      -0.565392
                                                         3.849621      -0.038231
                                                         1.388401      -0.382373
                                                         0.496955       0.179070
                                                         0.162492       0.122714
                          1       4    4py              10.389228      -0.565392
                                                         3.849621      -0.038231
                                                         1.388401      -0.382373
                                                         0.496955       0.179070
                                                         0.162492       0.122714
                          1       4    4pz              10.389228      -0.565392
                                                         3.849621      -0.038231
                                                         1.388401      -0.382373
                                                         0.496955       0.179070
                                                         0.162492       0.122714

                          1       5    4dx2             10.389228       1.867377
                                                         3.849621       0.670994
                                                         1.388401       1.353441
                                                         0.496955       0.273538
                                                         0.162492       0.006620
                          1       5    4dxy             10.389228       3.234392
                                                         3.849621       1.162195
                                                         1.388401       2.344229
                                                         0.496955       0.473781
                                                         0.162492       0.011466
                          1       5    4dxz             10.389228       3.234392
                                                         3.849621       1.162195
                                                         1.388401       2.344229
                                                         0.496955       0.473781
                                                         0.162492       0.011466
                          1       5    4dy2             10.389228       1.867377
                                                         3.849621       0.670994
                                                         1.388401       1.353441
                                                         0.496955       0.273538
                                                         0.162492       0.006620
                          1       5    4dyz             10.389228       3.234392
                                                         3.849621       1.162195
                                                         1.388401       2.344229
                                                         0.496955       0.473781
                                                         0.162492       0.011466
                          1       5    4dz2             10.389228       1.867377
                                                         3.849621       0.670994
                                                         1.388401       1.353441
                                                         0.496955       0.273538
                                                         0.162492       0.006620

       Atomic covalent radius [Angstrom]:                                  0.730

       Atomic van der Waals radius [Angstrom]:                             1.520

     GTH Potential information for                                    GTH-PBE-q6

       Description:                       Goedecker-Teter-Hutter pseudopotential
                                           Goedecker et al., PRB 54, 1703 (1996)
                                          Hartwigsen et al., PRB 58, 3641 (1998)
                                                      Krack, TCA 114, 145 (2005)

       Gaussian exponent of the core charge distribution:               8.360253
       Electronic configuration (s p d ...):                               2   4

       Parameters of the local part of the GTH pseudopotential:

                          rloc        C1          C2          C3          C4
                        0.244554  -16.667215    2.487311

       Parameters of the non-local part of the GTH pseudopotential:

                   l      r(l)      h(i,j,l)

                   0    0.220956   18.337458
                   1    0.211332

     A DFT+U correction is applied to atoms of this atomic kind:
       Angular quantum momentum number L:                                      1
       U(eff) = (U - J) value in [eV]:                                     2.000


 MOLECULE KIND INFORMATION


 All atoms are their own molecule, skipping detailed information


 TOTAL NUMBERS AND MAXIMUM NUMBERS

  Total number of            - Atomic kinds:                                   2
                             - Atoms:                                        192
                             - Shell sets:                                   192
                             - Shells:                                      1152
                             - Primitive Cartesian functions:               1024
                             - Cartesian basis functions:                   3776
                             - Spherical basis functions:                   3328

  Maximum angular momentum of- Orbital basis functions:                        3
                             - Local part of the GTH pseudopotential:          2
                             - Non-local part of the GTH pseudopotential:      3


 MODULE QUICKSTEP: ATOMIC COORDINATES IN ANGSTROM

   Atom Kind Element         X             Y             Z       Z(eff)     Mass
      1    1 Ti   22     -0.003804      0.062483     -0.006632  12.0000  47.8670
      2    1 Ti   22      1.894223      1.896044      4.808495  12.0000  47.8670
      3    1 Ti   22     -0.004101      1.911827      2.435083  12.0000  47.8670
      4    1 Ti   22      1.885791      0.011502      7.212078  12.0000  47.8670
      5    1 Ti   22     -0.003150      3.768186     -0.008491  12.0000  47.8670
      6    1 Ti   22      1.895606     13.247915      4.814000  12.0000  47.8670
      7    1 Ti   22     11.330312      1.900075      2.404147  12.0000  47.8670
      8    1 Ti   22      5.654636      0.006211      7.211111  12.0000  47.8670
      9    1 Ti   22      1.888124      3.781961      7.211872  12.0000  47.8670
     10    1 Ti   22     -0.002179     13.256935      2.432121  12.0000  47.8670
     11    1 Ti   22      5.659025      1.895963      4.808138  12.0000  47.8670
     12    1 Ti   22     11.332369      0.015109     -0.004394  12.0000  47.8670
     13    1 Ti   22      3.767008      0.020192      0.004530  12.0000  47.8670
     14    1 Ti   22     13.217087      1.889422      4.804895  12.0000  47.8670
     15    1 Ti   22     13.224784      0.010727      7.216058  12.0000  47.8670
     16    1 Ti   22      3.772064      1.914014      2.397241  12.0000  47.8670
     17    1 Ti   22      1.900242      5.665519      4.812601  12.0000  47.8670
     18    1 Ti   22     -0.000526     11.489171     -0.032767  12.0000  47.8670
     19    1 Ti   22      0.000298      5.683510      2.433225  12.0000  47.8670
     20    1 Ti   22      1.888638     11.349859      7.197184  12.0000  47.8670
     21    1 Ti   22      0.000564      7.457017     -0.033153  12.0000  47.8670
     22    1 Ti   22      1.923744      9.459721      4.811786  12.0000  47.8670
     23    1 Ti   22      7.546809      1.905203      2.400865  12.0000  47.8670
     24    1 Ti   22      9.437682      0.004494      7.219363  12.0000  47.8670
     25    1 Ti   22      1.891238      7.565800      7.194802  12.0000  47.8670
     26    1 Ti   22      0.002439      9.470818      2.486514  12.0000  47.8670
     27    1 Ti   22      9.436473      1.887762      4.804907  12.0000  47.8670
     28    1 Ti   22      7.544617      0.011595     -0.000647  12.0000  47.8670
     29    1 Ti   22      3.772714      3.806064      0.002386  12.0000  47.8670
     30    1 Ti   22     13.220607     13.247037      4.811793  12.0000  47.8670
     31    1 Ti   22     11.345619      5.687808      2.398941  12.0000  47.8670
     32    1 Ti   22      5.660700     11.361146      7.209564  12.0000  47.8670
     33    1 Ti   22     13.224655      3.777784      7.211399  12.0000  47.8670
     34    1 Ti   22      3.767925     13.246458      2.400526  12.0000  47.8670
     35    1 Ti   22      5.676623      5.671688      4.807751  12.0000  47.8670
     36    1 Ti   22     11.334467     11.354708     -0.000283  12.0000  47.8670
     37    1 Ti   22     11.341196     13.245163      2.402881  12.0000  47.8670
     38    1 Ti   22      5.659430      3.782637      7.212761  12.0000  47.8670
     39    1 Ti   22      3.781250     11.358028      0.003680  12.0000  47.8670
     40    1 Ti   22     13.223007      5.662236      4.815205  12.0000  47.8670
     41    1 Ti   22      5.661462     13.242252      4.799776  12.0000  47.8670
     42    1 Ti   22     11.335710      3.793017      0.001048  12.0000  47.8670
     43    1 Ti   22     13.230823     11.352491      7.198507  12.0000  47.8670
     44    1 Ti   22      3.779990      5.695850      2.403878  12.0000  47.8670
     45    1 Ti   22      3.787782      7.584520     -0.003925  12.0000  47.8670
     46    1 Ti   22     13.201510      9.462023      4.813686  12.0000  47.8670
     47    1 Ti   22      7.566730      5.690078      2.403271  12.0000  47.8670
     48    1 Ti   22      9.452853     11.355100      7.213438  12.0000  47.8670
     49    1 Ti   22     13.231807      7.566201      7.194054  12.0000  47.8670
     50    1 Ti   22      3.795833      9.467187      2.399462  12.0000  47.8670
     51    1 Ti   22      9.457507      5.666942      4.809386  12.0000  47.8670
     52    1 Ti   22      7.553893     11.363061     -0.005589  12.0000  47.8670
     53    1 Ti   22     11.334704      9.470737      2.397485  12.0000  47.8670
     54    1 Ti   22      5.673643      7.562858      7.209112  12.0000  47.8670
     55    1 Ti   22      5.683902      9.460487      4.817487  12.0000  47.8670
     56    1 Ti   22     11.337818      7.581360      0.004612  12.0000  47.8670
     57    1 Ti   22      9.444920      3.777973      7.212228  12.0000  47.8670
     58    1 Ti   22      7.554554     13.244342      2.407086  12.0000  47.8670
     59    1 Ti   22      7.552212      3.798833     -0.001012  12.0000  47.8670
     60    1 Ti   22      9.446925     13.240772      4.803543  12.0000  47.8670
     61    1 Ti   22      7.563992      7.577614     -0.002412  12.0000  47.8670
     62    1 Ti   22      9.446819      9.463187      4.814908  12.0000  47.8670
     63    1 Ti   22      7.563650      9.471665      2.396610  12.0000  47.8670
     64    1 Ti   22      9.459280      7.561813      7.204557  12.0000  47.8670
     65    2 O     8      0.002234      0.017125      1.997798   6.0000  15.9994
     66    2 O     8      1.882995      1.891421      6.798521   6.0000  15.9994
     67    2 O     8     -0.002478      1.883715      4.397313   6.0000  15.9994
     68    2 O     8      1.880022      0.060569      9.204316   6.0000  15.9994
     69    2 O     8      1.881496      0.004252      5.215438   6.0000  15.9994
     70    2 O     8     -0.001320      1.918682      0.421677   6.0000  15.9994
     71    2 O     8      1.885594      1.938270      2.813585   6.0000  15.9994
     72    2 O     8     -0.003736      0.000244      7.624570   6.0000  15.9994
     73    2 O     8     -0.004274      3.809112      1.999958   6.0000  15.9994
     74    2 O     8      1.887702     13.238877      6.802184   6.0000  15.9994
     75    2 O     8     11.335824      1.880875      4.397232   6.0000  15.9994
     76    2 O     8      5.651013     -0.000995      9.209814   6.0000  15.9994
     77    2 O     8      1.883354      3.779461      5.216212   6.0000  15.9994
     78    2 O     8     -0.000867     13.288273      0.401354   6.0000  15.9994
     79    2 O     8      5.656070      1.942044      2.810904   6.0000  15.9994
     80    2 O     8     11.336676      0.002768      7.622376   6.0000  15.9994
     81    2 O     8      3.766954      0.000358      7.624723   6.0000  15.9994
     82    2 O     8     13.226732      1.892685      2.813803   6.0000  15.9994
     83    2 O     8     13.228379      0.058445      9.205942   6.0000  15.9994
     84    2 O     8      3.769916      1.882339      4.395533   6.0000  15.9994
     85    2 O     8      1.889104      5.667212      6.797750   6.0000  15.9994
     86    2 O     8      0.000044     11.341613      1.939104   6.0000  15.9994
     87    2 O     8     -0.000642      5.661584      0.405514   6.0000  15.9994
     88    2 O     8      1.886685     11.346576      5.216994   6.0000  15.9994
     89    2 O     8      0.000706      7.605175      1.941522   6.0000  15.9994
     90    2 O     8      1.876208      9.458576      6.798628   6.0000  15.9994
     91    2 O     8      7.544887      1.886475      4.393225   6.0000  15.9994
     92    2 O     8      9.440174      0.005806      9.205053   6.0000  15.9994
     93    2 O     8      1.880186      7.569193      5.218546   6.0000  15.9994
     94    2 O     8     -0.000356      9.473164      0.266364   6.0000  15.9994
     95    2 O     8      9.442646      1.887172      2.813880   6.0000  15.9994
     96    2 O     8      7.541380     -0.002117      7.625281   6.0000  15.9994
     97    2 O     8      3.767906      0.017884      1.994144   6.0000  15.9994
     98    2 O     8     13.233599      1.889134      6.799200   6.0000  15.9994
     99    2 O     8      0.000562      5.654312      4.396175   6.0000  15.9994
    100    2 O     8      1.874188     11.285331      9.211702   6.0000  15.9994
    101    2 O     8     13.236039      0.003112      5.217103   6.0000  15.9994
    102    2 O     8      3.768710      1.916228      0.412692   6.0000  15.9994
    103    2 O     8      1.886409      5.714390      2.816273   6.0000  15.9994
    104    2 O     8     -0.000349     11.420051      7.609119   6.0000  15.9994
    105    2 O     8     11.300447      1.904533      0.410430   6.0000  15.9994
    106    2 O     8      5.650420      0.003377      5.215762   6.0000  15.9994
    107    2 O     8      5.649485      1.890086      6.801355   6.0000  15.9994
    108    2 O     8     11.352614      0.008755      1.989983   6.0000  15.9994
    109    2 O     8      1.882672      3.822740      9.204709   6.0000  15.9994
    110    2 O     8     -0.001653     13.236413      4.394023   6.0000  15.9994
    111    2 O     8     -0.003225      3.763703      7.623577   6.0000  15.9994
    112    2 O     8      1.881424     13.237165      2.815185   6.0000  15.9994
    113    2 O     8      3.766765      3.815824      1.991411   6.0000  15.9994
    114    2 O     8     13.229116     13.240159      6.803081   6.0000  15.9994
    115    2 O     8     11.350339      5.650413      4.398335   6.0000  15.9994
    116    2 O     8      5.659065     11.409263      9.203804   6.0000  15.9994
    117    2 O     8     13.235959      3.774711      5.215011   6.0000  15.9994
    118    2 O     8      3.707664     13.244583      0.409068   6.0000  15.9994
    119    2 O     8      5.672417      5.710306      2.815234   6.0000  15.9994
    120    2 O     8     11.351445     11.358828      7.624818   6.0000  15.9994
    121    2 O     8     11.358924     13.241339      0.404265   6.0000  15.9994
    122    2 O     8      5.653582      3.780598      5.218807   6.0000  15.9994
    123    2 O     8      3.765867     11.356596      7.624905   6.0000  15.9994
    124    2 O     8     13.235835      5.713548      2.815080   6.0000  15.9994
    125    2 O     8      5.649703     13.237419      6.796690   6.0000  15.9994
    126    2 O     8     11.353073      3.794966      1.992656   6.0000  15.9994
    127    2 O     8     13.244722     11.290945      9.211605   6.0000  15.9994
    128    2 O     8      3.777889      5.659523      4.398221   6.0000  15.9994
    129    2 O     8      5.650971      5.670971      6.798044   6.0000  15.9994
    130    2 O     8     11.352385     11.357899      1.992582   6.0000  15.9994
    131    2 O     8     13.228197      3.813987      9.205216   6.0000  15.9994
    132    2 O     8      3.768038     13.238490      4.396271   6.0000  15.9994
    133    2 O     8     11.357296      5.697407      0.409556   6.0000  15.9994
    134    2 O     8      5.650046     11.349069      5.217535   6.0000  15.9994
    135    2 O     8      3.769046      3.765934      7.623148   6.0000  15.9994
    136    2 O     8     13.234089     13.237014      2.814051   6.0000  15.9994
    137    2 O     8     13.236858     11.349854      5.218775   6.0000  15.9994
    138    2 O     8      3.762143      5.706265      0.407224   6.0000  15.9994
    139    2 O     8      5.655122     13.240056      2.810643   6.0000  15.9994
    140    2 O     8     11.339628      3.760591      7.623744   6.0000  15.9994
    141    2 O     8      3.768283     11.356435      1.994856   6.0000  15.9994
    142    2 O     8     13.229632      5.664369      6.797423   6.0000  15.9994
    143    2 O     8     11.343683     13.241482      4.396503   6.0000  15.9994
    144    2 O     8      5.656735      3.825321      9.206780   6.0000  15.9994
    145    2 O     8      3.767784      7.587597      1.991660   6.0000  15.9994
    146    2 O     8     13.243790      9.459546      6.799937   6.0000  15.9994
    147    2 O     8      7.570688      5.647989      4.397745   6.0000  15.9994
    148    2 O     8      9.454205     11.352945      9.204476   6.0000  15.9994
    149    2 O     8     13.237183      7.571105      5.218026   6.0000  15.9994
    150    2 O     8      3.823927      9.473814      0.410875   6.0000  15.9994
    151    2 O     8      9.463805      5.708475      2.813934   6.0000  15.9994
    152    2 O     8      7.555178     11.352842      7.619695   6.0000  15.9994
    153    2 O     8     11.341679      9.471143      0.412422   6.0000  15.9994
    154    2 O     8      5.703898      7.566366      5.219402   6.0000  15.9994
    155    2 O     8      5.649939      9.460042      6.805182   6.0000  15.9994
    156    2 O     8     11.353415      7.585005      1.994052   6.0000  15.9994
    157    2 O     8      9.444238      3.827257      9.204474   6.0000  15.9994
    158    2 O     8      7.551771     13.234361      4.395372   6.0000  15.9994
    159    2 O     8      7.548706      3.768664      7.622509   6.0000  15.9994
    160    2 O     8      9.451694     13.240799      2.813601   6.0000  15.9994
    161    2 O     8      7.530582      0.012078      1.994775   6.0000  15.9994
    162    2 O     8      9.420421      1.887234      6.802493   6.0000  15.9994
    163    2 O     8      0.001656      9.468680      4.389354   6.0000  15.9994
    164    2 O     8      1.877335      7.663736      9.210005   6.0000  15.9994
    165    2 O     8      9.422666      0.001358      5.218625   6.0000  15.9994
    166    2 O     8      7.533641      1.904937      0.408692   6.0000  15.9994
    167    2 O     8      1.891115      9.475735      2.807735   6.0000  15.9994
    168    2 O     8      0.000197      7.473522      7.608366   6.0000  15.9994
    169    2 O     8      7.587022      3.802866      1.990795   6.0000  15.9994
    170    2 O     8      9.464530     13.237220      6.802035   6.0000  15.9994
    171    2 O     8     11.347926      9.469948      4.400273   6.0000  15.9994
    172    2 O     8      5.667674      7.592167      9.196735   6.0000  15.9994
    173    2 O     8      9.466491      3.773477      5.217121   6.0000  15.9994
    174    2 O     8      7.584337     13.243960      0.412036   6.0000  15.9994
    175    2 O     8      5.672949      9.471410      2.823409   6.0000  15.9994
    176    2 O     8     11.353986      7.531195      7.623416   6.0000  15.9994
    177    2 O     8      3.768673      7.532721      7.620110   6.0000  15.9994
    178    2 O     8     13.234252      9.474090      2.808071   6.0000  15.9994
    179    2 O     8     13.245415      7.659815      9.209523   6.0000  15.9994
    180    2 O     8      3.780251      9.424238      4.401575   6.0000  15.9994
    181    2 O     8      9.465394      5.665648      6.797494   6.0000  15.9994
    182    2 O     8      7.538800     11.357558      1.991646   6.0000  15.9994
    183    2 O     8      7.534441      5.697929      0.411409   6.0000  15.9994
    184    2 O     8      9.466491     11.351692      5.220578   6.0000  15.9994
    185    2 O     8      7.587277      7.586081      1.992417   6.0000  15.9994
    186    2 O     8      9.469285      9.459934      6.803681   6.0000  15.9994
    187    2 O     8      7.569181      9.472307      4.401807   6.0000  15.9994
    188    2 O     8      9.458692      7.595098      9.204180   6.0000  15.9994
    189    2 O     8      9.469178      7.567838      5.219134   6.0000  15.9994
    190    2 O     8      7.533217      9.473664      0.407299   6.0000  15.9994
    191    2 O     8      9.457323      9.477075      2.816109   6.0000  15.9994
    192    2 O     8      7.568452      7.537273      7.618668   6.0000  15.9994



 SCF PARAMETERS         Density guess:                                   RESTART
                        --------------------------------------------------------
                        max_scf:                                              40
                        max_scf_history:                                       0
                        max_diis:                                              4
                        --------------------------------------------------------
                        eps_scf:                                        1.00E-06
                        eps_scf_history:                                0.00E+00
                        eps_diis:                                       1.00E-01
                        eps_eigval:                                     1.00E-05
                        --------------------------------------------------------
                        level_shift [a.u.]:                             0.000000
                        --------------------------------------------------------
                        Outer loop SCF in use 
                        No variables optimised in outer loop
                        eps_scf                                         1.00E-06
                        max_scf                                               60
                        No outer loop optimization
                        step_size                                       5.00E-01

 PW_GRID| Information for grid number                                          1
 PW_GRID| Grid distributed over                                   128 processors
 PW_GRID| Real space group dimensions                                   128    1
 PW_GRID| the grid is blocked:                                                NO
 PW_GRID| Cutoff [a.u.]                                                    300.0
 PW_GRID| spherical cutoff:                                                   NO
 PW_GRID|   Bounds   1           -112     112                Points:         225
 PW_GRID|   Bounds   2           -112     112                Points:         225
 PW_GRID|   Bounds   3            -72      71                Points:         144
 PW_GRID| Volume element (a.u.^3)  0.2035E-02     Volume (a.u.^3)     14833.7304
 PW_GRID| Grid span                                                    FULLSPACE
 PW_GRID|   Distribution                         Average         Max         Min
 PW_GRID|   G-Vectors                            56953.1       57150       56925
 PW_GRID|   G-Rays                                 253.1         254         253
 PW_GRID|   Real Space Points                    56953.1       64800       32400

 PW_GRID| Information for grid number                                          2
 PW_GRID| Number of the reference grid                                         1
 PW_GRID| Grid distributed over                                   128 processors
 PW_GRID| Real space group dimensions                                   128    1
 PW_GRID| the grid is blocked:                                                NO
 PW_GRID| Cutoff [a.u.]                                                    100.0
 PW_GRID| spherical cutoff:                                                   NO
 PW_GRID|   Bounds   1            -67      67                Points:         135
 PW_GRID|   Bounds   2            -67      67                Points:         135
 PW_GRID|   Bounds   3            -40      40                Points:          81
 PW_GRID| Volume element (a.u.^3)  0.1005E-01     Volume (a.u.^3)     14833.7304
 PW_GRID| Grid span                                                    FULLSPACE
 PW_GRID|   Distribution                         Average         Max         Min
 PW_GRID|   G-Vectors                            11533.0       12150       10800
 PW_GRID|   G-Rays                                  85.4          90          80
 PW_GRID|   Real Space Points                    11533.0       21870       10935

 PW_GRID| Information for grid number                                          3
 PW_GRID| Number of the reference grid                                         1
 PW_GRID| Grid distributed over                                   128 processors
 PW_GRID| Real space group dimensions                                     8   16
 PW_GRID| the grid is blocked:                                                NO
 PW_GRID| Cutoff [a.u.]                                                     33.3
 PW_GRID| spherical cutoff:                                                   NO
 PW_GRID|   Bounds   1            -37      37                Points:          75
 PW_GRID|   Bounds   2            -37      37                Points:          75
 PW_GRID|   Bounds   3            -24      23                Points:          48
 PW_GRID| Volume element (a.u.^3)  0.5494E-01     Volume (a.u.^3)     14833.7304
 PW_GRID| Grid span                                                    FULLSPACE
 PW_GRID|   Distribution                         Average         Max         Min
 PW_GRID|   G-Vectors                             2109.4        2475        1725
 PW_GRID|   G-Rays                                  28.1          33          23
 PW_GRID|   Real Space Points                     2109.4        2400        1728

 PW_GRID| Information for grid number                                          4
 PW_GRID| Number of the reference grid                                         1
 PW_GRID| Grid distributed over                                   128 processors
 PW_GRID| Real space group dimensions                                     8   16
 PW_GRID| the grid is blocked:                                                NO
 PW_GRID| Cutoff [a.u.]                                                     11.1
 PW_GRID| spherical cutoff:                                                   NO
 PW_GRID|   Bounds   1            -22      22                Points:          45
 PW_GRID|   Bounds   2            -22      22                Points:          45
 PW_GRID|   Bounds   3            -13      13                Points:          27
 PW_GRID| Volume element (a.u.^3)  0.2713         Volume (a.u.^3)     14833.7304
 PW_GRID| Grid span                                                    FULLSPACE
 PW_GRID|   Distribution                         Average         Max         Min
 PW_GRID|   G-Vectors                              427.1         585         270
 PW_GRID|   G-Rays                                   9.5          13           6
 PW_GRID|   Real Space Points                      427.1         486         270

 POISSON| Solver                                                        PERIODIC
 POISSON| Periodicity                                                        XYZ

 RS_GRID| Information for grid number                                          1
 RS_GRID|   Bounds   1           -112     112                Points:         225
 RS_GRID|   Bounds   2           -112     112                Points:         225
 RS_GRID|   Bounds   3            -72      71                Points:         144
 RS_GRID| Real space distribution over                                  8 groups
 RS_GRID| Real space distribution along direction                              1
 RS_GRID| Border size                                                         26
 RS_GRID| Real space distribution over                                 16 groups
 RS_GRID| Real space distribution along direction                              2
 RS_GRID| Border size                                                         26
 RS_GRID|   Distribution                         Average         Max         Min
 RS_GRID|   Planes                                  80.1          81          80
 RS_GRID|   Distribution                         Average         Max         Min
 RS_GRID|   Planes                                  66.1          67          66

 RS_GRID| Information for grid number                                          2
 RS_GRID|   Bounds   1            -67      67                Points:         135
 RS_GRID|   Bounds   2            -67      67                Points:         135
 RS_GRID|   Bounds   3            -40      40                Points:          81
 RS_GRID| Real space distribution over                                  8 groups
 RS_GRID| Real space distribution along direction                              1
 RS_GRID| Border size                                                         24
 RS_GRID| Real space distribution over                                 16 groups
 RS_GRID| Real space distribution along direction                              2
 RS_GRID| Border size                                                         24
 RS_GRID|   Distribution                         Average         Max         Min
 RS_GRID|   Planes                                  64.9          65          64
 RS_GRID|   Distribution                         Average         Max         Min
 RS_GRID|   Planes                                  56.4          57          56

 RS_GRID| Information for grid number                                          3
 RS_GRID|   Bounds   1            -37      37                Points:          75
 RS_GRID|   Bounds   2            -37      37                Points:          75
 RS_GRID|   Bounds   3            -24      23                Points:          48
 RS_GRID| Real space fully replicated
 RS_GRID| Group size                                                           1

 RS_GRID| Information for grid number                                          4
 RS_GRID|   Bounds   1            -22      22                Points:          45
 RS_GRID|   Bounds   2            -22      22                Points:          45
 RS_GRID|   Bounds   3            -13      13                Points:          27
 RS_GRID| Real space fully replicated
 RS_GRID| Group size                                                           1

 Spin 1

 Number of electrons:                                                        768
 Number of occupied orbitals:                                                768
 Number of molecular orbitals:                                               768

 Spin 2

 Number of electrons:                                                        768
 Number of occupied orbitals:                                                768
 Number of molecular orbitals:                                               768

 Number of orbital functions:                                               3328
 Number of independent orbital functions:                                   3328

 Extrapolation method: initial_guess

 *** WARNING in qs_initial_guess.F:306 :: User requested to restart the    ***
 *** wavefunction from the file named: tio2-RESTART.wfn. This file does    ***
 *** not exist. Please check the existence of the file or change properly  ***
 *** the value of the keyword WFN_RESTART_FILE_NAME. Calculation continues ***
 *** using ATOMIC GUESS.                                                   ***


 Atomic guess: The first density matrix is obtained in terms of atomic orbitals
               and electronic configurations assigned to each atomic kind

 Guess for atomic kind: Ti

 Electronic structure
    Total number of core electrons                                         10.00
    Total number of valence electrons                                      12.00
    Total number of electrons                                              22.00
    Multiplicity                                                   not specified
    S   [  2.00  2.00] 2.00  2.00
    P   [  6.00] 6.00
    D      2.00


 *******************************************************************************
                  Iteration          Convergence                     Energy [au]
 *******************************************************************************
                          1         2.59099                     -56.573945749309
                          2        0.737518                     -57.461623245624
                          3        0.123244E-01                 -57.676656834797
                          4        0.338536E-02                 -57.676690535970
                          5        0.252157E-03                 -57.676697146183
                          6        0.162704E-05                 -57.676697160103
                          7        0.846593E-06                 -57.676697160104

 Energy components [Hartree]           Total Energy ::          -57.676697160104
                                        Band Energy ::          -13.440549799540
                                     Kinetic Energy ::           25.008468428381
                                   Potential Energy ::          -82.685165588485
                                      Virial (-V/T) ::            3.306286661467
                                        Core Energy ::          -97.155838374470
                                          XC Energy ::           -6.919409696495
                                     Coulomb Energy ::           46.398550910862
                       Total Pseudopotential Energy ::         -122.259340742080
                       Local Pseudopotential Energy ::         -118.928992669456
                    Nonlocal Pseudopotential Energy ::           -3.330348072625
                                        Confinement ::            0.950339392289

 Orbital energies  State     L     Occupation   Energy[a.u.]          Energy[eV]

                       1     0          2.000      -2.312566          -62.928123
                       2     0          2.000      -0.123060           -3.348633

                       1     1          6.000      -1.385567          -37.703193

                       1     2          2.000      -0.127948           -3.481643


 Total Electron Density at R=0:                                         0.004726

 Guess for atomic kind: O

 Electronic structure
    Total number of core electrons                                          2.00
    Total number of valence electrons                                       6.00
    Total number of electrons                                               8.00
    Multiplicity                                                   not specified
    S   [  2.00] 2.00
    P      4.00


 *******************************************************************************
                  Iteration          Convergence                     Energy [au]
 *******************************************************************************
                          1        0.702811                     -15.577904332270
                          2        0.612408                     -15.588447180504
                          3        0.955344E-02                 -15.655871208406
                          4        0.223754E-02                 -15.655885053552
                          5        0.157183E-02                 -15.655885461027
                          6        0.124953E-02                 -15.655885607150
                          7        0.312011E-06                 -15.655885858066

 Energy components [Hartree]           Total Energy ::          -15.655885858066
                                        Band Energy ::           -2.983128125584
                                     Kinetic Energy ::           11.754765134683
                                   Potential Energy ::          -27.410650992749
                                      Virial (-V/T) ::            2.331875684345
                                        Core Energy ::          -26.153522949072
                                          XC Energy ::           -3.157392363346
                                     Coulomb Energy ::           13.655029454351
                       Total Pseudopotential Energy ::          -37.943026860963
                       Local Pseudopotential Energy ::          -39.220419683052
                    Nonlocal Pseudopotential Energy ::            1.277392822089
                                        Confinement ::            0.347387772086

 Orbital energies  State     L     Occupation   Energy[a.u.]          Energy[eV]

                       1     0          2.000      -0.861522          -23.443215

                       1     1          4.000      -0.315021           -8.572154


 Total Electron Density at R=0:                                         0.000093

 Spin 1
 Re-scaling the density matrix to get the right number of electrons for spin 1
                  # Electrons              Trace(P)               Scaling factor
                          768               768.001                        1.000

 Spin 2
 Re-scaling the density matrix to get the right number of electrons for spin 2
                  # Electrons              Trace(P)               Scaling factor
                          768               768.001                        1.000


 SCF WAVEFUNCTION OPTIMIZATION

  ----------------------------------- OT ---------------------------------------
  Minimizer      : DIIS                : direct inversion
                                         in the iterative subspace
                                         using   7 DIIS vectors
                                         safer DIIS on
  Preconditioner : FULL_SINGLE_INVERSE : inversion of 
                                         H + eS - 2*(Sc)(c^T*H*c+const)(Sc)^T
  Precond_solver : DEFAULT
  stepsize       :    0.08000000                  energy_gap     :    0.08000000
  eps_taylor     :   0.10000E-15                  max_taylor     :             4
  ----------------------------------- OT ---------------------------------------

  Step     Update method      Time    Convergence         Total energy    Change
  ------------------------------------------------------------------------------
     1 OT DIIS     0.80E-01    2.2     0.01006746     -5659.5274280760 -5.66E+03
     2 OT DIIS     0.80E-01    1.5     0.00726691     -5694.5702530235 -3.50E+01
     3 OT DIIS     0.80E-01    1.5     0.00470168     -5726.6698507770 -3.21E+01
     4 OT DIIS     0.80E-01    1.5     0.00369285     -5737.0654793768 -1.04E+01
     5 OT DIIS     0.80E-01    1.5     0.00269766     -5748.8675472820 -1.18E+01
     6 OT DIIS     0.80E-01    1.5     0.00221549     -5755.9323123783 -7.06E+00
     7 OT DIIS     0.80E-01    1.5     0.00184675     -5762.2585188762 -6.33E+00
     8 OT DIIS     0.80E-01    1.5     0.00148213     -5768.1914272388 -5.93E+00
     9 OT DIIS     0.80E-01    1.5     0.00128202     -5771.8542518961 -3.66E+00
    10 OT DIIS     0.80E-01    1.5     0.00099895     -5775.1765030965 -3.32E+00
    11 OT DIIS     0.80E-01    1.5     0.00090974     -5776.0109861920 -8.34E-01
    12 OT DIIS     0.80E-01    1.5     0.00073024     -5777.9016724025 -1.89E+00
    13 OT DIIS     0.80E-01    1.5     0.00060185     -5779.1846091893 -1.28E+00
    14 OT DIIS     0.80E-01    1.5     0.00049584     -5780.1437729256 -9.59E-01
    15 OT DIIS     0.80E-01    1.6     0.00044789     -5780.5976938087 -4.54E-01
    16 OT DIIS     0.80E-01    1.5     0.00037342     -5781.2168930103 -6.19E-01
    17 OT DIIS     0.80E-01    1.5     0.00037938     -5781.2191915033 -2.30E-03
    18 OT DIIS     0.80E-01    1.5     0.00031332     -5781.6123531027 -3.93E-01
    19 OT DIIS     0.80E-01    1.5     0.00028024     -5781.8787032597 -2.66E-01
    20 OT DIIS     0.80E-01    1.5     0.00026506     -5781.9829923340 -1.04E-01
    21 OT DIIS     0.80E-01    1.5     0.00023158     -5782.2502509530 -2.67E-01
    22 OT SD       0.80E-01    1.5     0.00022591     -5782.3760027763 -1.26E-01
    23 OT DIIS     0.80E-01    1.5     0.00021885     -5782.3965041290 -2.05E-02
    24 OT DIIS     0.80E-01    1.5     0.00019194     -5782.5905867631 -1.94E-01
    25 OT DIIS     0.80E-01    1.5     0.00018877     -5782.6279161561 -3.73E-02
    26 OT DIIS     0.80E-01    1.5     0.00016920     -5782.7530516669 -1.25E-01
    27 OT DIIS     0.80E-01    1.5     0.00015261     -5782.8557663625 -1.03E-01
    28 OT DIIS     0.80E-01    1.5     0.00013426     -5782.9366338722 -8.09E-02
    29 OT DIIS     0.80E-01    1.5     0.00012880     -5782.9736270659 -3.70E-02
    30 OT DIIS     0.80E-01    1.5     0.00011579     -5783.0109817808 -3.74E-02
    31 OT DIIS     0.80E-01    1.5     0.00011021     -5783.0479209899 -3.69E-02
    32 OT DIIS     0.80E-01    1.5     0.00009536     -5783.0894575026 -4.15E-02
    33 OT DIIS     0.80E-01    1.5     0.00010455     -5783.1041454782 -1.47E-02
    34 OT DIIS     0.80E-01    1.5     0.00009532     -5783.1182585651 -1.41E-02
    35 OT DIIS     0.80E-01    1.5     0.00008775     -5783.1268805691 -8.62E-03
    36 OT DIIS     0.80E-01    1.5     0.00008448     -5783.1411746948 -1.43E-02
    37 OT DIIS     0.80E-01    1.5     0.00008024     -5783.1668560671 -2.57E-02
    38 OT DIIS     0.80E-01    1.5     0.00007942     -5783.1774303575 -1.06E-02
    39 OT DIIS     0.80E-01    1.6     0.00007857     -5783.1807424803 -3.31E-03
    40 OT DIIS     0.80E-01    1.5     0.00007696     -5783.1976486524 -1.69E-02

  Leaving inner SCF loop after reaching    40 steps.


  Electronic density on regular grids:      -1535.9999999999        0.0000000001
  Core density on regular grids:             1535.9999999995       -0.0000000005
  Total charge density on r-space grids:       -0.0000000004
  Total charge density g-space grids:          -0.0000000004

  Overlap energy of the core charge distribution:               0.00000000000383
  Self energy of the core charge distribution:             -12156.89556134359555
  Core Hamiltonian energy:                                   3258.71822340277777
  Hartree energy:                                            4031.70003260905469
  Exchange-correlation energy:                               -922.38485360866775

  DFT+U energy:                                                 5.66451028801075

  Total energy:                                             -5783.19764865241723

  outer SCF iter =    1 RMS gradient =   0.77E-04 energy =      -5783.1976486524

  ----------------------------------- OT ---------------------------------------
  Minimizer      : DIIS                : direct inversion
                                         in the iterative subspace
                                         using   7 DIIS vectors
                                         safer DIIS on
  Preconditioner : FULL_SINGLE_INVERSE : inversion of 
                                         H + eS - 2*(Sc)(c^T*H*c+const)(Sc)^T
  Precond_solver : DEFAULT
  stepsize       :    0.08000000                  energy_gap     :    0.08000000
  eps_taylor     :   0.10000E-15                  max_taylor     :             4
  ----------------------------------- OT ---------------------------------------

[...]
 flops    26 x    13 x    32          94984208384       0.0%    100.0%      0.0%     
 flops    13 x    26 x    32          94984208384       0.0%    100.0%      0.0%     
 flops    26 x    26 x    32          96468336640       0.0%    100.0%      0.0%     
 flops    96 x    32 x    32         112742891520       0.0%    100.0%      0.0%     
 flops    13 x    13 x    64         185783230464       0.0%    100.0%      0.0%     
 flops    26 x    13 x    64         189968416768       0.0%    100.0%      0.0%     
 flops    13 x    26 x    64         189968416768       0.0%    100.0%      0.0%     
 flops    26 x    26 x    64         192936673280       0.0%    100.0%      0.0%     
 flops    96 x    64 x    32         225485783040       0.0%    100.0%      0.0%     
 flops    96 x    32 x    64         225485783040       0.0%    100.0%      0.0%     
 flops   416 x    32 x    32         275683213312       0.0%    100.0%      0.0%     
 flops    96 x    64 x    64         450971566080       0.0%    100.0%      0.0%     
 flops   416 x    64 x    32         551366426624       0.0%    100.0%      0.0%     
 flops   416 x    32 x    64         551366426624       0.0%    100.0%      0.0%     
 flops    96 x    32 x   208         674022555648       0.0%    100.0%      0.0%     
 flops   416 x    32 x   208         768379715584       0.0%    100.0%      0.0%     
 flops   416 x    64 x    64        1102732853248       0.0%    100.0%      0.0%     
 flops    13 x    32 x    13        1166580879360       0.0%    100.0%      0.0%     
 flops    26 x    32 x    26        1203605864448       0.0%    100.0%      0.0%     
 flops    26 x    32 x    13        1203605864448       0.0%    100.0%      0.0%     
 flops    13 x    32 x    26        1203605864448       0.0%    100.0%      0.0%     
 flops    96 x    64 x   208        1349190156288       0.0%    100.0%      0.0%     
 flops   416 x    64 x   208        1542430130176       0.0%    100.0%      0.0%     
 flops inhomo. stacks                     2770252     100.0%      0.0%      0.0%
 flops total                        13.783877E+12       0.0%    100.0%      0.0%
 flops max/rank                    142.382700E+09       0.0%    100.0%      0.0%
 matmuls inhomo. stacks                      4006     100.0%      0.0%      0.0%
 matmuls total                          301859606       0.0%    100.0%      0.0%
 number of processed stacks               8548710       0.0%    100.0%      0.0%
 average stack size                                     1.0      35.3       0.0
 marketing flops                    15.000821E+12
 -------------------------------------------------------------------------------
 # multiplications                           4783
 max memory usage/rank             347.643904E+06
 # max total images/rank                        2
 # max 3D layers                                1
 # MPI messages exchanged                17754496
 MPI messages size (bytes):
  total size                         1.757770E+12
  min size                           0.000000E+00
  max size                         692.224000E+03
  average size                      99.004227E+03
 MPI breakdown and total messages size (bytes):
             size <=      128             5933792                   142848
       128 < size <=     8192              996160               6856429216
      8192 < size <=    32768             3506528              79738659024
     32768 < size <=   131072             3883136             296649158656
    131072 < size <=  4194304             3434880            1374545016000
   4194304 < size <= 16777216                   0                        0
  16777216 < size                               0                        0
 -------------------------------------------------------------------------------

 *** WARNING in dbcsr_mm.F:301 :: Using a non-square number of MPI ranks ***
 *** might lead to poor performance. Used ranks: 128 Suggested: 121 256  ***

 -------------------------------------------------------------------------------
 -                                                                             -
 -                      DBCSR MESSAGE PASSING PERFORMANCE                      -
 -                                                                             -
 -------------------------------------------------------------------------------
 ROUTINE             CALLS      AVE VOLUME [Bytes]
 MP_Bcast               50                     12.
 MP_Allreduce        24956                     26.
 MP_Alltoall         17327                  29472.
 MP_ISend           301248                  49067.
 MP_IRecv           300708                  48612.
 -------------------------------------------------------------------------------

 -------------------------------------------------------------------------------
 -                                                                             -
 -                                DBM STATISTICS                               -
 -                                                                             -
 -------------------------------------------------------------------------------
    M  x    N  x    K                                          COUNT     PERCENT
 -------------------------------------------------------------------------------

 -------------------------------------------------------------------------------
 -                                                                             -
 -                                GRID STATISTICS                              -
 -                                                                             -
 -------------------------------------------------------------------------------
 LP    KERNEL             BACKEND                              COUNT     PERCENT
 5     collocate ortho    CPU                               20384780      25.41%
 5     integrate ortho    CPU                               20071168      25.02%
 6     collocate ortho    CPU                               10415210      12.98%
 6     integrate ortho    CPU                               10254976      12.79%
 4     collocate ortho    CPU                                9304620      11.60%
 4     integrate ortho    CPU                                9161472      11.42%
 0     integrate general  CPU                                 393216       0.49%
 0     collocate general  CPU                                 221184       0.28%
 2     collocate ortho    CPU                                   2560       0.00%
 3     collocate ortho    CPU                                   1536       0.00%
 -------------------------------------------------------------------------------

 MEMORY| Estimated peak process memory [MiB]                                 332

 -------------------------------------------------------------------------------
 ----                             MULTIGRID INFO                            ----
 -------------------------------------------------------------------------------
 count for grid        1:        1287130          cutoff [a.u.]          300.00
 count for grid        2:         980958          cutoff [a.u.]          100.00
 count for grid        3:         793912          cutoff [a.u.]           33.33
 count for grid        4:         536868          cutoff [a.u.]           11.11
 total gridlevel count  :        3598868

 -------------------------------------------------------------------------------
 -                                                                             -
 -                         MESSAGE PASSING PERFORMANCE                         -
 -                                                                             -
 -------------------------------------------------------------------------------

 ROUTINE             CALLS      AVE VOLUME [Bytes]
 MP_Group                4
 MP_Bcast             8488                  19451.
 MP_Allreduce        22635                    453.
 MP_Sync               786
 MP_Alltoall          2679                2618468.
 MP_SendRecv         34036                  11544.
 MP_ISendRecv        32512                  11544.
 MP_Wait             48336
 MP_comm_split         258
 MP_ISend            28676                  77979.
 MP_IRecv            28616                  78139.
 MP_Write_All            6                 355816.
 -------------------------------------------------------------------------------


 -------------------------------------------------------------------------------
 -                                                                             -
 -                           R E F E R E N C E S                               -
 -                                                                             -
 -------------------------------------------------------------------------------
 
 CP2K version 2024.3, the CP2K developers group (2024).
 CP2K is freely available from https://www.cp2k.org/ .
 
 T. D. Kuehne, M. Iannuzzi, M. Del Ben, V. V. Rybkin, P. Seewald, F. Stein, T. 
 Laino, R. Z. Khaliullin, O. Schuett, F. Schiffmann, D. Golze, J. Wilhelm, S. 
 Chulkov, M. H. Bani-Hashemian, V. Weber, U. Borstnik, M. Taillefumier, A. S. 
 Jakobovits, A. Lazzaro, H. Pabst, T. Mueller, R. Schade, M. Guidon, S. 
 Andermatt, N. Holmberg, G. K. Schenter, A. Hehn, A. Bussy, F. Belleflamme, G. 
 Tabacchi, A. Gloess, M. Lass, I. Bethune, C. J. Mundy, C. Plessl, M. Watkins, 
 J. VandeVondele, M. Krack, J. Hutter.
 J. Chem. Phys. 152, 194103 (2020).
 CP2K: An electronic structure and molecular dynamics software package - 
 Quickstep: Efficient and accurate electronic structure calculations.
 https://doi.org/10.1063/5.0007045

 O. Schuett, P. Messmer, J. Hutter, J. VandeVondele.
 Electronic Structure Calculations on Graphics Processing Units, 173-190 (2016).
 GPU-Accelerated Sparse Matrix-Matrix Multiplication for Linear Scaling Density 
 Functional Theory.
 https://doi.org/10.1002/9781118670712.ch8

 A. Heinecke, G. Henry, M. Hutchinson, H. Pabst.
 Proceedings of Intl. Supercomputing Conference, 981-991 (2016).
 LIBXSMM: Accelerating Small Matrix Multiplications by Runtime Code Generation.
 https://doi.org/10.1109/SC.2016.83

 J. Hutter, M. Iannuzzi, F. Schiffmann, J. VandeVondele.
 WIREs Comput Mol Sci. 4, 15-25 (2014).
 CP2K: atomistic simulations of condensed matter systems.
 https://doi.org/10.1002/wcms.1159

 U. Borstnik, J. VandeVondele, V. Weber, J. Hutter.
 Parallel Comput. 40, 47-58 (2014).
 Sparse matrix multiplication: The distributed block-compressed sparse row 
 library.
 https://doi.org/10.1016/j.parco.2014.03.012

 A. Marek, V. Blum, R. Johanni, V. Havu, B. Lang, T. Auckenthaler, A. Heinecke, 
 H. Bungartz, H. Lederer.
 J. Phys. Condens. Matter 26, 213201 (2014).
 The ELPA library: scalable parallel eigenvalue solutions for electronic 
 structure theory and computational science.
 https://doi.org/10.1088/0953-8984/26/21/213201

 J. VandeVondele, J. Hutter.
 J. Chem. Phys. 127, 114105 (2007).
 Gaussian basis sets for accurate calculations on molecular systems in gas and 
 condensed phases.
 https://doi.org/10.1063/1.2770708

 J. VandeVondele, M. Krack, F. Mohamed, M. Parrinello, T. Chassaing, J. Hutter.
 Comput. Phys. Commun. 167, 103-128 (2005).
 QUICKSTEP: Fast and accurate density functional calculations using a mixed 
 Gaussian and plane waves approach.
 https://doi.org/10.1016/j.cpc.2004.12.014

 M. Krack.
 Theor. Chem. Acc. 114, 145-152 (2005).
 Pseudopotentials for H to Kr optimized for gradient-corrected 
 exchange-correlation functionals.
 https://doi.org/10.1007/s00214-005-0655-y

 M. Frigo, S. G. Johnson.
 Proc. IEEE 93, 216-231 (2005).
 The design and implementation of FFTW3.
 https://doi.org/10.1109/JPROC.2004.840301

 J. VandeVondele, J. Hutter.
 J. Chem. Phys. 118, 4365-4369 (2003).
 An efficient orbital transformation method for electronic structure 
 calculations.
 https://doi.org/10.1063/1.1543154

 C. Hartwigsen, S. Goedecker, J. Hutter.
 Phys. Rev. B 58, 3641-3662 (1998).
 Relativistic separable dual-space Gaussian pseudopotentials from H to Rn.
 https://doi.org/10.1103/PhysRevB.58.3641

 S. L. Dudarev, G. A. Botton, S. Y. Savrasov, C. J. Humphreys, A. P. Sutton.
 Phys. Rev. B 57, 1505-1509 (1998).
 Electron-energy-loss spectra and the structural stability of nickel oxide: An 
 LSDA+U study.
 https://doi.org/10.1103/PhysRevB.57.1505

 G. Lippert, J. Hutter, M. Parrinello.
 Mol. Phys. 92, 477-487 (1997).
 A hybrid Gaussian and plane wave density functional scheme.
 https://doi.org/10.1080/002689797170220

 S. L. Dudarev, D. N. Manh, A. P. Sutton.
 Philos. Mag. B 75, 613-628 (1997).
 Effect of Mott-Hubbard correlations on the electronic structure and structural 
 stability of uranium dioxide.
 https://doi.org/10.1080/13642819708202343

 S. Goedecker, M. Teter, J. Hutter.
 Phys. Rev. B 54, 1703-1710 (1996).
 Separable dual-space Gaussian pseudopotentials.
 https://doi.org/10.1103/PhysRevB.54.1703

 J. P. Perdew, K. Burke, M. Ernzerhof.
 Phys. Rev. Lett. 77, 3865-3868 (1996).
 Generalized gradient approximation made simple.
 https://doi.org/10.1103/PhysRevLett.77.3865


 -------------------------------------------------------------------------------
 -                                                                             -
 -                                T I M I N G                                  -
 -                                                                             -
 -------------------------------------------------------------------------------
 SUBROUTINE                       CALLS  ASD         SELF TIME        TOTAL TIME
                                MAXIMUM       AVERAGE  MAXIMUM  AVERAGE  MAXIMUM
 CP2K                                 1  1.0    0.111    0.122  108.686  108.690
 qs_energies                          1  2.0    0.006    0.010  107.742  107.748
 scf_env_do_scf                       1  3.0    0.004    0.007   95.866   95.868
 scf_env_do_scf_inner_loop           64  4.0    0.007    0.021   92.672   92.736
 qs_ks_update_qs_env                 66  5.0    0.001    0.002   45.712   45.829
 rebuild_ks_matrix                   64  6.0    0.002    0.003   45.623   45.739
 qs_ks_build_kohn_sham_matrix        64  7.0    0.017    0.022   45.621   45.737
 sum_up_and_integrate                64  8.0    0.005    0.007   28.784   28.801
 integrate_v_rspace                 128  9.0    0.005    0.009   28.703   28.746
 qs_rho_update_rho_low               65  5.0    0.001    0.002   26.572   26.581
 calculate_rho_elec                 130  6.0    0.048    0.056   26.571   26.580
 dbcsr_multiply_generic            4783  9.2    0.175    0.182   22.665   23.210
 qs_scf_new_mos                      64  5.0    0.000    0.001   22.058   22.225
 qs_scf_loop_do_ot                   64  6.0    0.001    0.002   22.057   22.224
 grid_integrate_task_list           128 10.0   20.465   21.570   20.465   21.570
 ot_scf_mini                         64  7.0    0.003    0.004   20.649   20.770
 grid_collocate_task_list           130  7.0   19.163   20.240   19.163   20.240
 multiply_cannon                   4783 10.2    0.779    0.830   15.034   17.323
 fft_wrap_pw1pw2                   2143 10.3    0.042    0.052   14.171   15.896
 multiply_cannon_loop              4783 11.2    0.340    0.360   12.988   15.112
 fft_wrap_pw1pw2_300               1357 11.8    0.535    0.589   13.154   14.874
 qs_vxc_create                       64  8.0    0.002    0.004   13.471   13.574
 xc_vxc_pw_create                    64  9.0    0.244    0.315   13.469   13.572
 fft3d_ps                          2143 12.3    4.238    4.769   11.167   13.217
 ot_mini                            202  6.6    0.006    0.008   11.631   11.785
 xc_pw_derive                       768 11.0    0.007    0.008    9.106   10.669
 scf_post_calculation_gpw             1  3.0    0.005    0.007    9.636    9.640
 multiply_cannon_multrec          76528 12.2    6.057    9.568    6.073    9.585
 mp_waitall_1                    571368 13.3    6.550    9.432    6.550    9.432
 qs_ot_get_p                        274  6.9    0.004    0.005    8.905    9.195
 mp_alltoall_z22v                  2143 14.3    5.746    8.970    5.746    8.970
 qs_ot_get_derivative               198  8.3    0.001    0.001    8.426    8.517
 multiply_cannon_metrocomm3       76528 12.2    0.185    0.192    4.533    7.911
 density_rs2pw                      130  7.0    0.010    0.013    6.676    7.534
 xc_rho_set_and_dset_create          64 10.0    0.220    0.347    6.997    7.416
 xc_pw_divergence                   128 10.0    0.003    0.004    6.017    7.256
 qs_ot_p2m_diag                     254  8.0    0.054    0.073    6.766    6.809
 potential_pw2rs                    128 10.0    0.010    0.012    6.525    6.574
 cp_dbcsr_syevd                     254  9.0    0.077    0.086    5.740    5.746
 qs_ot_get_derivative_diag          182  9.3    0.004    0.005    5.556    5.645
 make_lumo_gpw                        1  4.0    0.001    0.002    5.475    5.477
 ot_eigensolver                       2  5.0    0.003    0.004    5.455    5.457
 yz_to_x                            781 13.4    0.331    0.468    3.286    5.400
 cp_fm_redistribute_end             258 10.9    2.695    5.312    2.714    5.324
 cp_fm_diag_elpa                    124 10.9    0.001    0.003    5.247    5.266
 cp_fm_diag_elpa_base               124 11.9    2.507    5.024    2.520    5.058
 make_m2s                          9566 10.2    0.130    0.141    4.663    4.924
 transfer_pw2rs                     514 11.0    0.007    0.008    4.793    4.814
 transfer_rs2pw                     538  7.9    0.009    0.013    3.943    4.717
 mp_waitany                       12664 11.4    3.316    4.580    3.316    4.580
 x_to_yz                            838 13.7    0.558    0.712    3.313    4.193
 make_images                       9566 11.2    0.256    0.278    3.777    4.013
 mp_sum_l                         23194 10.1    2.031    3.492    2.031    3.492
 transfer_pw2rs_300                 130 11.9    1.632    1.722    3.317    3.474
 transfer_rs2pw_300                 136  8.9    0.934    1.267    2.529    3.428
 write_available_results              1  4.0    0.002    0.004    3.233    3.237
 mp_alltoall_d11v                  3873 11.6    2.407    3.212    2.407    3.212
 write_mo_free_results                1  5.0    0.146    0.151    3.191    3.194
 init_scf_loop                        2  4.0    0.004    0.005    3.153    3.159
 apply_preconditioner_dbcsr         206  9.3    0.001    0.002    2.567    2.862
 apply_single                       206 10.3    0.001    0.001    2.566    2.862
 ot_diis_step                        64  9.0    0.012    0.015    2.593    2.596
 multiply_cannon_metrocomm4       71745 12.2    0.183    0.188    0.864    2.488
 rs_gather_matrices                 128 10.0    0.059    0.076    1.706    2.485
 mp_irecv_dv                     158959 13.2    0.765    2.435    0.765    2.435
 xc_functional_eval                  64 11.0    0.001    0.002    2.054    2.407
 pbe_lsd_eval                        64 12.0    2.053    2.406    2.053    2.406
 -------------------------------------------------------------------------------

 The number of warnings for this run is : 3
 
 -------------------------------------------------------------------------------
  **** **** ******  **  PROGRAM ENDED AT                 2025-06-22 05:08:51.137
 ***** ** ***  *** **   PROGRAM RAN ON                                 nid002397
 **    ****   ******    PROGRAM RAN BY                                    cahart
 ***** **    ** ** **   PROGRAM PROCESS ID                                 32475
  **** **  *******  **  PROGRAM STOPPED IN /mnt/lustre/a2fs-work2/work/e05/e05/c
                                           ahart/postdoc2/work/group/tio2/anatas
                                           e/cell-441/geo-opt/mp-390/neutral-fro
                                           m-hole/pbe-u-o/u-2.0
