#     Step Nr.          Time[fs]        Kin.[a.u.]          Temp[K]            Pot.[a.u.]        Cons Qty[a.u.]        UsedTime[s]
     96948        92661.000000         0.115294102       516.410702739     -1444.999878384     -1445.102162052        67.102700630
     96949        92662.000000         0.117261066       525.220876768     -1445.002330220     -1445.102167857         5.876532346
     96950        92663.000000         0.108290255       485.039959738     -1445.004693707     -1445.102176116         4.725292855
     96951        92664.000000         0.133293857       597.032920022     -1445.006770468     -1445.102186097         4.478225882
     96952        92665.000000         0.102489843       459.059489586     -1445.008666666     -1445.102194804         5.251106015
     96953        92666.000000         0.122531585       548.827916519     -1445.010077615     -1445.102198565         7.081816023
     96954        92667.000000         0.099186474       444.263460175     -1445.011075436     -1445.102199470         4.884877317
     96955        92668.000000         0.109694822       491.331117633     -1445.011568263     -1445.102200764         4.825897080
     96956        92669.000000         0.102484576       459.035899070     -1445.011742402     -1445.102200732         5.533990336
     96957        92670.000000         0.108076751       484.083661425     -1445.011559992     -1445.102202290         5.639636301
     96958        92671.000000         0.100548246       450.362937742     -1445.010945446     -1445.102198258         5.548767920
     96959        92672.000000         0.124820834       559.081628446     -1445.009878250     -1445.102193845         6.308039105
     96960        92673.000000         0.108934810       487.926970340     -1445.008409235     -1445.102185615         4.014676351
     96961        92674.000000         0.102517381       459.182833445     -1445.006882865     -1445.102176752         6.726512174
     96962        92675.000000         0.139603283       625.293298542     -1445.005072403     -1445.102173374         5.986350479
     96963        92676.000000         0.086892806       389.199222278     -1445.003195439     -1445.102169471         5.284016013
     96964        92677.000000         0.086304479       386.564064735     -1445.001496410     -1445.102161937         5.523518758
     96965        92678.000000         0.110547280       495.149337188     -1445.000014635     -1445.102157273         4.389553483
     96966        92679.000000         0.124133700       556.003905904     -1444.998550674     -1445.102155355         5.933334655
     96967        92680.000000         0.126579221       566.957574395     -1444.997021250     -1445.102150601         5.254001953
     96968        92681.000000         0.111310395       498.567389054     -1444.995348993     -1445.102138006         4.444943498
     96969        92682.000000         0.096530844       432.368698615     -1444.994250656     -1445.102129730         5.602656400
     96970        92683.000000         0.102170936       457.631083385     -1444.993812059     -1445.102129608         5.290608444
     96971        92684.000000         0.110017249       492.775293144     -1444.993893722     -1445.102135032         4.412732907
     96972        92685.000000         0.136206344       610.078160277     -1444.994335579     -1445.102137800         5.188854740
     96973        92686.000000         0.118332395       530.019439045     -1444.995105886     -1445.102141929         3.653400412
     96974        92687.000000         0.120228960       538.514292485     -1444.996150621     -1445.102149510         4.437182721
     96975        92688.000000         0.108874839       487.658355847     -1444.997350673     -1445.102158827         3.652068282
     96976        92689.000000         0.121157437       542.673006981     -1444.998557532     -1445.102168375         4.443054178
     96977        92690.000000         0.126849386       568.167660832     -1444.999760342     -1445.102176798         4.816812498
     96978        92691.000000         0.121482182       544.127563148     -1445.000508896     -1445.102179131         4.894340336
     96979        92692.000000         0.119037506       533.177681605     -1445.000972553     -1445.102173213         4.034046511
     96980        92693.000000         0.110172519       493.470757868     -1445.001358677     -1445.102169695         4.830496261
     96981        92694.000000         0.118409363       530.364185147     -1445.001513240     -1445.102169056         4.473008563
     96982        92695.000000         0.105481373       472.458771466     -1445.001514605     -1445.102173304         4.140236593
     96983        92696.000000         0.128491859       575.524417654     -1445.001422080     -1445.102180147         4.049074558
     96984        92697.000000         0.122912564       550.534347471     -1445.000983658     -1445.102180174         4.026019403
     96985        92698.000000         0.136190306       610.006325848     -1445.000118337     -1445.102166750         4.440670576
     96986        92699.000000         0.104578868       468.416384917     -1444.999077623     -1445.102152756         3.342587410
     96987        92700.000000         0.104362720       467.448242734     -1444.998316549     -1445.102148276         4.448001707
     96988        92701.000000         0.103002293       461.354792966     -1444.997819670     -1445.102158750         4.440577546
     96989        92702.000000         0.111018851       497.261538247     -1444.997418294     -1445.102176319         4.082186854
     96990        92703.000000         0.111190296       498.029452891     -1444.996823737     -1445.102179013         3.641424061
     96991        92704.000000         0.087909556       393.753320042     -1444.995940075     -1445.102176459         3.718156041
     96992        92705.000000         0.101929205       456.548353493     -1444.995104247     -1445.102176528         4.440012931
     96993        92706.000000         0.112650455       504.569615570     -1444.994007293     -1445.102179026         4.839993576
     96994        92707.000000         0.112232500       502.697564528     -1444.992405530     -1445.102176543         4.450360290
     96995        92708.000000         0.108377278       485.429739813     -1444.990569783     -1445.102172480         4.281319141
     96996        92709.000000         0.138541856       620.539088137     -1444.988188943     -1445.102170818         4.827493458
     96997        92710.000000         0.108361124       485.357386469     -1444.985163408     -1445.102168399         4.424950920
     96998        92711.000000         0.106511637       477.073397743     -1444.981988356     -1445.102160721         4.441675818
     96999        92712.000000         0.130967504       586.613015310     -1444.978107540     -1445.102145856         4.859341344
     97000        92713.000000         0.162474546       727.735356717     -1444.973709466     -1445.102122780         8.911883888
     97001        92714.000000         0.127285845       570.122592039     -1444.968733125     -1445.102100059         3.652197129
     97002        92715.000000         0.111247550       498.285900015     -1444.964691684     -1445.102082406         4.889689187
     97003        92716.000000         0.104493167       468.032526778     -1444.961492380     -1445.102069549         4.406990107
     97004        92717.000000         0.105096312       470.734055104     -1444.959177752     -1445.102065273         3.620255954
     97005        92718.000000         0.107649195       482.168603743     -1444.957733894     -1445.102067750         3.978536845
     97006        92719.000000         0.099705715       446.589177240     -1444.957427053     -1445.102069832         4.493676419
     97007        92720.000000         0.104171865       466.593388698     -1444.958274088     -1445.102073964         4.018826367
     97008        92721.000000         0.086926627       389.350711109     -1444.960255850     -1445.102078666         4.012512592
     97009        92722.000000         0.095993592       429.962309542     -1444.963039672     -1445.102086323         4.783365197
     97010        92723.000000         0.120736351       540.786933108     -1444.967147989     -1445.102101698         5.368105633
     97011        92724.000000         0.118429159       530.452851371     -1444.971889933     -1445.102121797         4.061154277
     97012        92725.000000         0.122770718       549.899009080     -1444.976750655     -1445.102135703         3.616286003
     97013        92726.000000         0.110014170       492.761500038     -1444.981100482     -1445.102143583         4.409326469
     97014        92727.000000         0.121106594       542.445279321     -1444.985703975     -1445.102155575         4.858082082
     97015        92728.000000         0.115061704       515.369773534     -1444.989886455     -1445.102171060         4.426187878
     97016        92729.000000         0.133459438       597.774569284     -1444.993719929     -1445.102185349         4.062316079
     97017        92730.000000         0.145531663       651.846946159     -1444.996762035     -1445.102196264         3.611771546
     97018        92731.000000         0.127673000       571.856690116     -1444.998828501     -1445.102199900         4.112053663
     97019        92732.000000         0.116951507       523.834340467     -1445.000202372     -1445.102202145         3.611680620
     97020        92733.000000         0.138148022       618.775076077     -1445.000966497     -1445.102206948         3.604599059
     97021        92734.000000         0.119805452       536.617367997     -1445.000944120     -1445.102215086         4.342643456
     97022        92735.000000         0.108711759       486.927904901     -1445.000019317     -1445.102212897         4.877670675
     97023        92736.000000         0.111071313       497.496523531     -1444.998425042     -1445.102198999         3.248827912
     97024        92737.000000         0.093940494       420.766330224     -1444.996549915     -1445.102187986         3.977450357
     97025        92738.000000         0.106783017       478.288931028     -1444.994658391     -1445.102179983         3.604562679
     97026        92739.000000         0.109655268       491.153953296     -1444.992347981     -1445.102178296         4.789507015
     97027        92740.000000         0.114184552       511.440946014     -1444.989764940     -1445.102178743         5.229995226
     97028        92741.000000         0.120724717       540.734824503     -1444.986815673     -1445.102167860         4.395379011
     97029        92742.000000         0.106026627       474.901003829     -1444.983994845     -1445.102154501         4.404716034
     97030        92743.000000         0.129347176       579.355447568     -1444.981491366     -1445.102147552         3.638286151
     97031        92744.000000         0.118927445       532.684712027     -1444.979025488     -1445.102145862         4.477286535
     97032        92745.000000         0.109665980       491.201934320     -1444.976881141     -1445.102137052         4.778287750
     97033        92746.000000         0.110565856       495.232542934     -1444.975243914     -1445.102125380         3.605370652
     97034        92747.000000         0.096638175       432.849441431     -1444.974213190     -1445.102127727         3.606545812
     97035        92748.000000         0.092370360       413.733587921     -1444.973839934     -1445.102137781         4.053288036
     97036        92749.000000         0.100736926       451.208048288     -1444.974034794     -1445.102142095         3.982963724
     97037        92750.000000         0.106447793       476.787437600     -1444.974681698     -1445.102133830         4.752017645
     97038        92751.000000         0.122749184       549.802557860     -1444.975705051     -1445.102127554         3.619039735
     97039        92752.000000         0.100797661       451.480083323     -1444.977001027     -1445.102131756         3.676563615
     97040        92753.000000         0.108798029       487.314315753     -1444.978459820     -1445.102141285         4.778464378
     97041        92754.000000         0.112370731       503.316711079     -1444.980313520     -1445.102148759         4.801747101
     97042        92755.000000         0.097428893       436.391126310     -1444.982018053     -1445.102150473         5.187561674
     97043        92756.000000         0.097955243       438.748686363     -1444.983885369     -1445.102157862         4.870102709
     97044        92757.000000         0.126726636       567.617856449     -1444.985722565     -1445.102172024         4.053178036
     97045        92758.000000         0.113664553       509.111833639     -1444.987310016     -1445.102169207         4.400409338
     97046        92759.000000         0.119334615       534.508453079     -1444.988416750     -1445.102164205         4.852742540
     97047        92760.000000         0.124875674       559.327260372     -1444.989443067     -1445.102163560         4.859728297
     97048        92761.000000         0.124911091       559.485897260     -1444.990215862     -1445.102152864         4.002518120
     97049        92762.000000         0.114834255       514.351012070     -1444.990749232     -1445.102151641         4.412946085
     97050        92763.000000         0.113450833       508.154563328     -1444.991261928     -1445.102162394         3.260695644
     97051        92764.000000         0.112735655       504.951230511     -1444.991785906     -1445.102172183         4.092796988
     97052        92765.000000         0.144468771       647.086173413     -1444.992154565     -1445.102174101         3.974195742
     97053        92766.000000         0.110077439       493.044886325     -1444.992283714     -1445.102169907         3.972818664
     97054        92767.000000         0.085664432       383.697246182     -1444.992372590     -1445.102168804         4.391713453
     97055        92768.000000         0.092567729       414.617616366     -1444.992620885     -1445.102174421         3.678618523
     97056        92769.000000         0.091172689       408.369132547     -1444.993028415     -1445.102186539         3.611955680
     97057        92770.000000         0.103829027       465.057793866     -1444.993456945     -1445.102194639         3.609845595
     97058        92771.000000         0.094423883       422.931466740     -1444.993730975     -1445.102196321         3.622123634
     97059        92772.000000         0.093516951       418.869250468     -1444.993760143     -1445.102195067         3.614943934
     97060        92773.000000         0.106938883       478.987063677     -1444.993455939     -1445.102197742         4.069344469
     97061        92774.000000         0.109820859       491.895646942     -1444.992910562     -1445.102204076         4.416932017
     97062        92775.000000         0.113587785       508.767985178     -1444.991973938     -1445.102207997         4.790374651
     97063        92776.000000         0.132605546       593.949923991     -1444.990384702     -1445.102201593         3.613455071
     97064        92777.000000         0.124603052       558.106168885     -1444.988264848     -1445.102186729         3.992966632
     97065        92778.000000         0.091047971       407.810508722     -1444.985539620     -1445.102175431         4.528956732
     97066        92779.000000         0.125380523       561.588517293     -1444.982469968     -1445.102166368         4.046362545
     97067        92780.000000         0.137978915       618.017637071     -1444.978891199     -1445.102145506         4.399349020
     97068        92781.000000         0.118036802       528.695455859     -1444.975185572     -1445.102120660         4.106873905
     97069        92782.000000         0.095882878       429.466411392     -1444.971955587     -1445.102104894         4.003401869
     97070        92783.000000         0.103146497       462.000692343     -1444.969221940     -1445.102103530         3.989394837
     97071        92784.000000         0.111537064       499.582652628     -1444.966987154     -1445.102107214         3.628470091
     97072        92785.000000         0.110385304       494.423836530     -1444.965377922     -1445.102106382         3.996950789
     97073        92786.000000         0.108502873       485.992290179     -1444.964429077     -1445.102101320         3.725641689
     97074        92787.000000         0.101208089       453.318419566     -1444.964102832     -1445.102102373         3.663815350
     97075        92788.000000         0.098907287       443.012959859     -1444.964525465     -1445.102105910         4.804530911
     97076        92789.000000         0.105143872       470.947081459     -1444.965757094     -1445.102116486         4.802142089
     97077        92790.000000         0.121889740       545.953043992     -1444.967458957     -1445.102136880         4.484088010
     97078        92791.000000         0.123057563       551.183809689     -1444.969380445     -1445.102162213         4.794805497
     97079        92792.000000         0.131829192       590.472575013     -1444.970654752     -1445.102177165         4.795257327
     97080        92793.000000         0.104529036       468.193184896     -1444.971184731     -1445.102180936         4.053728403
     97081        92794.000000         0.147240815       659.502362406     -1444.971032869     -1445.102180702         4.492540005
     97082        92795.000000         0.111657246       500.120956832     -1444.970227129     -1445.102183523         4.415098052
     97083        92796.000000         0.127458321       570.895125530     -1444.968564783     -1445.102193996         4.027979019
     97084        92797.000000         0.125993040       564.332027663     -1444.966022274     -1445.102186033         3.619026972
     97085        92798.000000         0.120419767       539.368928642     -1444.962756073     -1445.102160800         3.258607930
     97086        92799.000000         0.113940064       510.345868535     -1444.958808827     -1445.102136834         3.983015505
     97087        92800.000000         0.115612890       517.838574740     -1444.954924723     -1445.102126210         4.437292141
     97088        92801.000000         0.099621043       446.209924462     -1444.951513358     -1445.102111125         3.282785262
     97089        92802.000000         0.100701901       451.051166813     -1444.948660925     -1445.102088691         3.619439545
     97090        92803.000000         0.119184789       533.837373138     -1444.946339060     -1445.102071801         4.067791274
     97091        92804.000000         0.138880069       622.053971474     -1444.944696932     -1445.102075402         3.625907587
     97092        92805.000000         0.132714952       594.439961743     -1444.943574022     -1445.102091496         3.986486175
     97093        92806.000000         0.117545505       526.494901677     -1444.942982819     -1445.102090878         4.417125328
     97094        92807.000000         0.112351392       503.230086601     -1444.943000040     -1445.102080852         4.042065255
     97095        92808.000000         0.109743158       491.547618134     -1444.943827900     -1445.102079856         4.060886753
     97096        92809.000000         0.103952846       465.612387486     -1444.945616070     -1445.102085873         3.619870793
     97097        92810.000000         0.103170859       462.109811340     -1444.948358852     -1445.102101881         3.977248549
     97098        92811.000000         0.107128864       479.838003394     -1444.951691450     -1445.102112527         3.978263631
     97099        92812.000000         0.116839646       523.333305588     -1444.955466016     -1445.102113809         4.042337037
     97100        92813.000000         0.098498436       441.181689194     -1444.959879065     -1445.102127831         7.745627215
     97101        92814.000000         0.126311223       565.757193273     -1444.964386753     -1445.102151390         3.996860395
     97102        92815.000000         0.134667982       603.187724070     -1444.969116859     -1445.102164902         4.503682863
     97103        92816.000000         0.106614383       477.533607281     -1444.973303610     -1445.102169257         4.393824661
     97104        92817.000000         0.138997667       622.580700402     -1444.977261845     -1445.102178959         4.400444676
     97105        92818.000000         0.146538908       656.358469786     -1444.980675898     -1445.102190152         3.982805159
     97106        92819.000000         0.130824849       585.974051252     -1444.983458197     -1445.102195595         4.044740047
     97107        92820.000000         0.103499770       463.583026777     -1444.985630567     -1445.102198584         3.654624855
     97108        92821.000000         0.084481460       378.398627116     -1444.987214978     -1445.102195695         5.170146490
     97109        92822.000000         0.100159628       448.622285654     -1444.988838727     -1445.102188686         4.818047502
     97110        92823.000000         0.108405177       485.554701442     -1444.990618132     -1445.102185392         4.450950665
     97111        92824.000000         0.106466479       476.871134423     -1444.992211578     -1445.102188620         4.766618137
     97112        92825.000000         0.103617575       464.110684078     -1444.993601883     -1445.102193981         3.247163723
     97113        92826.000000         0.114179820       511.419749898     -1444.994825229     -1445.102196452         4.350026557
     97114        92827.000000         0.092701070       415.214862825     -1444.995799644     -1445.102192474         3.977665189
     97115        92828.000000         0.114237653       511.678789727     -1444.996573619     -1445.102187423         5.118219180
     97116        92829.000000         0.095300411       426.857497637     -1444.997335119     -1445.102186162         5.197675826
     97117        92830.000000         0.100848814       451.709200510     -1444.997930442     -1445.102190975         4.412994750
     97118        92831.000000         0.100129061       448.485376596     -1444.998305917     -1445.102196431         3.732847177
     97119        92832.000000         0.097525074       436.821928662     -1444.998463363     -1445.102201004         4.349453735
     97120        92833.000000         0.096549621       432.452804252     -1444.998411814     -1445.102209160         3.627474589
     97121        92834.000000         0.106227073       475.798818683     -1444.997998469     -1445.102219687         3.627237904
     97122        92835.000000         0.120577155       540.073881967     -1444.997129567     -1445.102220531         4.415336701
     97123        92836.000000         0.107622017       482.046874429     -1444.995693636     -1445.102209307         4.824596370
     97124        92837.000000         0.124322162       556.848039923     -1444.993835110     -1445.102193433         4.043273086
     97125        92838.000000         0.123122135       551.473033567     -1444.991460066     -1445.102183849         4.821112975
     97126        92839.000000         0.140032850       627.217358633     -1444.988624588     -1445.102180566         4.425299961
     97127        92840.000000         0.128463771       575.398610619     -1444.985300349     -1445.102167383         5.110730486
     97128        92841.000000         0.111208004       498.108769478     -1444.982724755     -1445.102150158         5.209425891
     97129        92842.000000         0.104295745       467.148259727     -1444.980836125     -1445.102136547         5.209960518
     97130        92843.000000         0.129520052       580.129769374     -1444.979344466     -1445.102131982         5.244356162
     97131        92844.000000         0.119313668       534.414629685     -1444.978564120     -1445.102136802         7.077418110
     97132        92845.000000         0.113694928       509.247884221     -1444.978585992     -1445.102149936         7.869827261
     97133        92846.000000         0.143050476       640.733526524     -1444.979350817     -1445.102165812         8.375978170
     97134        92847.000000         0.118925163       532.674488926     -1444.980709006     -1445.102189217        10.923405128
     97135        92848.000000         0.126349880       565.930340229     -1444.982487878     -1445.102201185         9.741825501
     97136        92849.000000         0.144567283       647.527415086     -1444.984802960     -1445.102205898        13.761558030
     97137        92850.000000         0.123362548       552.549862426     -1444.987066458     -1445.102223623        10.575822841
     97138        92851.000000         0.129973903       582.162603689     -1444.988897741     -1445.102247515         7.794581169
     97139        92852.000000         0.110108496       493.183991918     -1444.990138477     -1445.102254292         7.865173066
     97140        92853.000000         0.117833377       527.784298957     -1444.991198280     -1445.102257164         7.800354747
     97141        92854.000000         0.104901845       469.863024638     -1444.991752550     -1445.102269456         6.704584005
     97142        92855.000000         0.093562737       419.074331289     -1444.991769528     -1445.102278181         5.625564112
     97143        92856.000000         0.097643855       437.353957072     -1444.991263119     -1445.102271889         5.281443116
     97144        92857.000000         0.111151703       497.856594217     -1444.990130735     -1445.102252328         6.314961482
     97145        92858.000000         0.104817309       469.484379945     -1444.988611511     -1445.102239529         5.619664863
     97146        92859.000000         0.103176071       462.133157708     -1444.986921530     -1445.102230745         5.523120943
     97147        92860.000000         0.101994414       456.840429306     -1444.985147320     -1445.102223867         4.724078441
     97148        92861.000000         0.100396819       449.684683670     -1444.983644677     -1445.102219327         5.542558384
     97149        92862.000000         0.114127213       511.184120033     -1444.982432049     -1445.102218934         4.782199749
     97150        92863.000000         0.093750015       419.913163646     -1444.981216397     -1445.102222089         5.142202228
     97151        92864.000000         0.098499475       441.186342120     -1444.980168206     -1445.102223105         5.163449498
     97152        92865.000000         0.089366594       400.279499044     -1444.979407554     -1445.102221773         4.862845900
     97153        92866.000000         0.103924326       465.484645071     -1444.978938492     -1445.102219173         3.976179665
     97154        92867.000000         0.110795459       496.260949505     -1444.978669884     -1445.102216507         3.987659740
     97155        92868.000000         0.136030098       609.288739638     -1444.978363930     -1445.102215465         4.395268156
     97156        92869.000000         0.125578683       562.476090910     -1444.977542840     -1445.102227272         4.063125305
     97157        92870.000000         0.120433868       539.432086951     -1444.976346054     -1445.102236819         5.206257070
     97158        92871.000000         0.105626893       473.110567727     -1444.974674691     -1445.102235758         4.804610665
     97159        92872.000000         0.118977711       532.909853461     -1444.972693601     -1445.102218809         4.794719151
     97160        92873.000000         0.084846264       380.032609757     -1444.970851536     -1445.102201379         4.059281828
     97161        92874.000000         0.097254253       435.608900816     -1444.969417742     -1445.102195223         3.615580177
     97162        92875.000000         0.105658514       473.252200011     -1444.968330181     -1445.102200671         3.976380470
     97163        92876.000000         0.129962629       582.112107252     -1444.967448386     -1445.102206389         3.633577770
     97164        92877.000000         0.116954466       523.847593829     -1444.966722642     -1445.102201776         3.625064697
     97165        92878.000000         0.128353719       574.905679625     -1444.965912135     -1445.102186622         4.410088763
     97166        92879.000000         0.131040289       586.939023989     -1444.965239046     -1445.102177932         4.795333562
     97167        92880.000000         0.119380187       534.712573411     -1444.964851889     -1445.102176992         4.404603581
     97168        92881.000000         0.111093446       497.595655680     -1444.964754032     -1445.102181677         3.677793398
     97169        92882.000000         0.099192492       444.290414062     -1444.965046958     -1445.102185088         4.029840618
     97170        92883.000000         0.107035905       479.421633874     -1444.965820440     -1445.102190276         4.023946890
     97171        92884.000000         0.118418697       530.405992188     -1444.966940672     -1445.102199892         4.429542465
     97172        92885.000000         0.122050409       546.672693210     -1444.967992879     -1445.102207022         4.404992998
     97173        92886.000000         0.136657636       612.099531426     -1444.968908187     -1445.102210923         4.065660849
     97174        92887.000000         0.095619115       428.284998513     -1444.969709563     -1445.102211604         4.396474715
     97175        92888.000000         0.123787864       554.454882982     -1444.970696312     -1445.102209128         3.251725782