     192
 i =        1, E =     -5779.3180246777
Ti        -0.0007011572       -0.0007095773       -0.0000006539
Ti         1.8926915691        1.8926992900        4.8075060176
Ti        -0.0006730302        1.8926970703        2.4026364853
Ti         1.8927160023       -0.0006774842        7.2123722447
Ti        -0.0006519305        3.7811742779        0.0016936547
Ti         1.8927279985       13.2394837972        4.8063753417
Ti        11.3461428452        1.8926913536        2.4037138874
Ti         5.6738618338       -0.0006477947        7.2133612181
Ti         1.8926629869        3.7812047582        7.2106959099
Ti        -0.0006980231       13.2394841836        2.4037814228
Ti         5.6738772842        1.8926638345        4.8065229220
Ti        11.3461122985       -0.0006801732       -0.0010909680
Ti         3.7811793071       -0.0006465310       -0.0016889971
Ti        13.2394683581        1.8927144252        4.8086355626
Ti        13.2395015206       -0.0007066790        7.2112622997
Ti         3.7812084266        1.8926830980        2.4043306364
Ti         1.8926606080        5.6738771761        4.8084842609
Ti        -0.0006793859       11.3461251926        0.0010855440
Ti        -0.0006541477        5.6738601965        2.4016452758
Ti         1.8927073502       11.3461432100        7.2112952720
Ti        -0.0006416409        7.5650905379        0.0020878755
Ti         1.8926961876        9.4577149304        4.8080530095
Ti         7.5650909335        1.8926672816        2.4047291986
Ti         9.4577290467       -0.0006591344        7.2129316756
Ti         1.8926640404        7.5650856236        7.2102995477
Ti        -0.0006483390        9.4577213779        2.4020910015
Ti         9.4577037212        1.8926868314        4.8069693494
Ti         7.5650683912       -0.0006372982       -0.0020862038
Ti         3.7812056938        3.7812120927        0.0000020239
Ti        13.2394979336       13.2395088818        4.8075058280
Ti        11.3461876419        5.6738661820        2.4027440819
Ti         5.6738759262       11.3461774534        7.2122748433
Ti        13.2394463315        3.7811929532        7.2095707381
Ti         3.7811927594       13.2394438563        2.4054637450
Ti         5.6738746995        5.6738770222        4.8075121180
Ti        11.3461400134       11.3461465989       -0.0000000328
Ti        11.3461299735       13.2394667280        2.4048644502
Ti         5.6738654941        3.7812087829        7.2116831724
Ti         3.7812102335       11.3461834617       -0.0006056442
Ti        13.2394414330        5.6738625631        4.8096291377
Ti         5.6738851694       13.2394532231        4.8054028261
Ti        11.3461628050        3.7812024358        0.0005955681
Ti        13.2394680420       11.3461080115        7.2101637417
Ti         3.7812027368        5.6738686215        2.4033468760
Ti         3.7812100749        7.5650964354        0.0004070435
Ti        13.2394742609        9.4577319760        4.8091873935
Ti         7.5650904154        5.6738576828        2.4037362324
Ti         9.4577042614       11.3461586160        7.2118389850
Ti        13.2394455483        7.5650775447        7.2091746081
Ti         3.7812001307        9.4576883753        2.4037853381
Ti         9.4577097908        5.6738851535        4.8079512959
Ti         7.5650908478       11.3461926756       -0.0009951049
Ti        11.3461768151        9.4577086217        2.4031819799
Ti         5.6738583671        7.5650839080        7.2112743376
Ti         5.6738763284        9.4577253024        4.8070640824
Ti        11.3461810261        7.5650829483        0.0009888275
Ti         9.4577010176        3.7811900081        7.2112403250
Ti         7.5650840895       13.2394428594        2.4058465233
Ti         7.5650769499        3.7811991935       -0.0004060792
Ti         9.4577327343       13.2394780689        4.8058336201
Ti         7.5650835198        7.5650907882       -0.0000001566
Ti         9.4577247255        9.4577245626        4.8075121070
Ti         7.5650787821        9.4577091903        2.4041757916
Ti         9.4576984183        7.5650779594        7.2108437870
O         0.0012792588        0.0026393703        1.9917405926
O         1.8843224145        1.8897643511        6.7974192608
O         0.0026180068        1.8841287333        4.3946697516
O         1.8897009697        0.0012754479        9.2019371532
O         1.8841105105        0.0026277611        5.2203518754
O         0.0012763082        1.8896957042        0.4130715714
O         1.8897557048        1.8843042355        2.8176046545
O         0.0026536034        0.0012965923        7.6232767489
O         0.0012731547        3.7816551277        1.9916821731
O         1.8841149984       13.2361296475        6.7984092371
O        11.3490577517        1.8842930756        4.3936257422
O         5.6727772849        0.0012618818        9.2033081597
O         1.8845346041        3.7816753308        5.2202703961
O         0.0013040025       13.2361010048        0.4120268617
O         5.6728036107        1.8845967733        2.8161222668
O        11.3491211477        0.0012750903        7.6243616262
O         3.7816569981        0.0012768047        7.6233429352
O        13.2361376309        1.8841246710        2.8166154839
O        13.2360962847        0.0012912747        9.2030102923
O         3.7816775732        1.8845433903        4.3947590852
O         1.8846399681        5.6727894557        6.7988962889
O         0.0012688391       11.3491143739        1.9906542008
O         0.0012863324        5.6727918520        0.4117081839
O         1.8842704328       11.3490740799        5.2213863538
O         0.0012691659        7.5661991108        1.9920282510
O         1.8845157182        9.4572382917        6.7984865350
O         7.5661980145        1.8846209269        4.3951246025
O         9.4572437669        0.0012622470        9.2029314364
O         1.8845974613        7.5661965420        5.2199037168
O         0.0012690060        9.4572461515        0.4120935043
O         9.4572269701        1.8845138280        2.8165365383
O         7.5662125962        0.0012757030        7.6229975668
O         3.7748781932        0.0026000341        1.9904343802
O        13.2372080983        1.8897003785        6.7981834279
O         0.0025849422        5.6704864650        4.3938862640
O         1.8897568549       11.3543666685        9.2012019437
O        13.2371494643        0.0026500925        5.2195162604
O         3.7749809478        1.8898185364        0.4142514855
O         1.8898282884        5.6705184985        2.8182620780
O         0.0026101871       11.3545863635        7.6240757397
O        11.3543840890        1.8897587259        0.4138138840
O         5.6704622790        0.0025906071        5.2211231996
O         5.6705228736        1.8898247750        6.7967469686
O        11.3545933413        0.0026131890        1.9909528643
O         1.8898146104        3.7749763794        9.2007714972
O         0.0026501390       13.2371468939        4.3955177449
O         0.0025926656        3.7748649060        7.6245866734
O         1.8897008704       13.2372330405        2.8168267158
O         3.7750846862        3.7816916703        1.9907246246
O        13.2371803062       13.2361063908        6.7992284358
O        11.3489946436        5.6704973936        4.3929616964
O         5.6727991937       11.3540558418        9.2026659755
O        13.2372170039        3.7816562553        5.2195845332
O         3.7748613110       13.2361648340        0.4133369041
O         5.6727995981        5.6705197395        2.8165085844
O        11.3490679806       11.3544171778        7.6251165763
O        11.3545711027       13.2361309362        0.4128255883
O         5.6704940409        3.7816976979        5.2207471648
O         3.7816820502       11.3541594850        7.6239998653
O        13.2361683909        5.6705009718        2.8173879262
O         5.6705022253       13.2361759565        6.7976415997
O        11.3541576672        3.7816653781        1.9910183878
O        13.2361315082       11.3545712317        9.2021966171
O         3.7816866273        5.6705144751        4.3942918912
O         5.6705195412        5.6728094390        6.7985186479
O        11.3543797642       11.3490719160        1.9899030486
O        13.2361624842        3.7748892812        9.2016929253
O         3.7816641619       13.2371777996        4.3954439874
O        11.3540742204        5.6727935837        0.4123607217
O         5.6704837233       11.3490099941        5.2220593624
O         3.7816958470        3.7750734617        7.6242989675
O        13.2361081773       13.2371855866        2.8157698476
O        13.2371853718       11.3491237069        5.2206029876
O         3.7751208337        5.6728036064        0.4125805685
O         5.6727897668       13.2372579923        2.8154789902
O        11.3490145141        3.7749683379        7.6255444398
O         3.7749637525       11.3490075289        1.9894740799
O        13.2372376413        5.6727865971        6.7995486678
O        11.3491200414       13.2371780619        4.3944257306
O         5.6728030912        3.7751190014        9.2024408228
O         3.7751165384        7.5661791809        1.9911533845
O        13.2372497607        9.4572405288        6.7991662320
O         7.5662036596        5.6705041073        4.3947467094
O         9.4572314087       11.3541509588        9.2022593864
O        13.2372206820        7.5662039277        5.2192462574
O         3.7750560732        9.4572243971        0.4130680244
O         9.4572220080        5.6705263071        2.8170193367
O         7.5661940346       11.3540806904        7.6236359044
O        11.3541639212        9.4572346057        0.4127691611
O         5.6705001349        7.5661907559        5.2202665885
O         5.6705279515        9.4572104783        6.7980002013
O        11.3540690396        7.5661996456        1.9913884574
O         9.4572074315        3.7750761966        9.2019592687
O         7.5662111251       13.2371911894        4.3957794670
O         7.5661822334        3.7751118557        7.6238532472
O         9.4572442879       13.2372504941        2.8158565022
O         7.5687509833        0.0025839080        1.9901452261
O         9.4639667747        1.8898084891        6.7970266673
O         0.0026154726        9.4640674958        4.3941992690
O         1.8898371345        7.5687000247        9.2005161067
O         9.4640627413        0.0026076847        5.2208218146
O         7.5687231440        1.8898292228        0.4145135004
O         1.8898091263        9.4639848885        2.8180004104
O         0.0025894736        7.5687438835        7.6248657774
O         7.5686934669        3.7816948130        1.9905322600
O         9.4640771818       13.2361517260        6.7979342646
O        11.3490250828        9.4639574273        4.3932379066
O         5.6728020350        7.5687070796        9.2022797586
O         9.4638647981        3.7816970722        5.2205421880
O         7.5687193680       13.2361783355        0.4136043337
O         5.6727889841        9.4638143301        2.8163332878
O        11.3489921988        7.5687257730        7.6257905932
O         3.7816886008        7.5687011081        7.6244873050
O        13.2361691129        9.4640784672        2.8170838849
O        13.2361677814        7.5687255573        9.2014066113
O         3.7816989224        9.4638496504        4.3944803738
O         9.4638119383        5.6727911603        6.7986888830
O         7.5687284017       11.3489972200        1.9892224115
O         7.5687129683        5.6728012160        0.4127373364
O         9.4639522936       11.3490161309        5.2217855500
O         7.5687087571        7.5661862609        1.9910143088
O         9.4638727253        9.4572123158        6.7982124464
O         7.5661802873        9.4637865879        4.3949131574
O         9.4572139638        7.5687075117        9.2017726404
O         9.4637847582        7.5662079682        5.2201060376
O         7.5687067773        9.4572135343        0.4132533685
O         9.4572153005        9.4638536059        2.8168120455
O         7.5661890365        7.5686992158        7.6240083934
     192
 i =        2, E =     -5779.3185964691
Ti         0.0005970914        0.0005834258        0.0000034450
Ti         1.8903327288        1.8903447580        4.8075064700
Ti         0.0005886731        1.8902559080        2.4016542862
Ti         1.8902693014        0.0005896551        7.2133605210
Ti         0.0005929760        3.7785144559        0.0027897148
Ti         1.8902827593       13.2380348761        4.8053854555
Ti        11.3484153947        1.8903316511        2.4036870516
Ti         5.6728025090        0.0005833114        7.2153435386
Ti         1.8904169119        3.7785671666        7.2105606421
Ti         0.0005958217       13.2380098604        2.4037861413
Ti         5.6728325815        1.8904498569        4.8055376284
Ti        11.3484725130        0.0005779743       -0.0020486906
Ti         3.7785208338        0.0006013558       -0.0027813715
Ti        13.2380290868        1.8902760548        4.8096325470
Ti        13.2380221438        0.0005874934        7.2112460224
Ti         3.7785744376        1.8904313733        2.4044581802
Ti         1.8904465240        5.6728400846        4.8094759184
Ti         0.0005833747       11.3484772488        0.0020402233
Ti         0.0005773955        5.6728056771        2.3996633074
Ti         1.8903430609       11.3484173747        7.2113190858
Ti         0.0005867405        7.5662841269        0.0040522089
Ti         1.8904351566        9.4603798237        4.8081374359
Ti         7.5662758746        1.8904507337        2.4056947429
Ti         9.4604110135        0.0005935042        7.2139844780
Ti         1.8904479338        7.5662652995        7.2093297224
Ti         0.0006011760        9.4604092775        2.4010433087
Ti         9.4603746807        1.8904346173        4.8068834649
Ti         7.5662683858        0.0005884245       -0.0040477177
Ti         3.7786183307        3.7786287229        0.0000015020
Ti        13.2380281799       13.2380343857        4.8075207003
Ti        11.3483174660        5.6728269590        2.4017203615
Ti         5.6728347256       11.3483083572        7.2133008303
Ti        13.2380262300        3.7785287687        7.2084638578
Ti         3.7785360416       13.2380253499        2.4065683164
Ti         5.6728671407        5.6728762580        4.8075095556
Ti        11.3484156599       11.3484235692        0.0000021188
Ti        11.3484899561       13.2380266764        2.4058242339
Ti         5.6728482851        3.7786221142        7.2124543998
Ti         3.7785664855       11.3483401449       -0.0007605706
Ti        13.2380441268        5.6728095440        4.8116219659
Ti         5.6728278244       13.2380453684        4.8034066439
Ti        11.3483240369        3.7785597842        0.0007594328
Ti        13.2380324592       11.3484659886        7.2091970018
Ti         3.7786164293        5.6728571611        2.4025684654
Ti         3.7786194961        7.5662418246        0.0011639059
Ti        13.2380465552        9.4604167210        4.8102477276
Ti         7.5662371624        5.6728559079        2.4037184937
Ti         9.4603754732       11.3483292303        7.2119469637
Ti        13.2380444977        7.5662770789        7.2071953042
Ti         3.7786206279        9.4603112193        2.4038232887
Ti         9.4603256110        5.6728718441        4.8087703242
Ti         7.5662737242       11.3483190355       -0.0020001451
Ti        11.3483409750        9.4603689405        2.4030656355
Ti         5.6728560072        7.5662306109        7.2112906345
Ti         5.6728672408        9.4603343477        4.8062371005
Ti        11.3483096879        7.5662679221        0.0019946063
Ti         9.4603096163        3.7786111033        7.2111927829
Ti         7.5662902198       13.2380432777        2.4078236021
Ti         7.5662295992        3.7786167624       -0.0011623787
Ti         9.4604238063       13.2380517130        4.8047750541
Ti         7.5662279350        7.5662363564        0.0000000799
Ti         9.4603394666        9.4603323081        4.8075106826
Ti         7.5662402658        9.4603193921        2.4049805755
Ti         9.4603115072        7.5662374064        7.2100382878
O         0.0010313040        0.0016617892        1.9906893942
O         1.8842150316        1.8890307080        6.7956063859
O         0.0017057131        1.8841547090        4.3936896720
O         1.8889777459        0.0010676264        9.2000932066
O         1.8841599214        0.0017088345        5.2213336139
O         0.0010673269        1.8889713501        0.4149219101
O         1.8890219761        1.8842075438        2.8194172132
O         0.0016622245        0.0010355740        7.6243343391
O         0.0010809990        3.7786762156        1.9912242590
O         1.8841709049       13.2368817314        6.7974200603
O        11.3496868134        1.8842122123        4.3917864383
O         5.6715701117        0.0011038182        9.2033081863
O         1.8841664595        3.7787482980        5.2206896357
O         0.0010403026       13.2369132800        0.4130878789
O         5.6716091017        1.8841935970        2.8161084496
O        11.3497321302        0.0010658726        7.6262413024
O         3.7786726027        0.0010826508        7.6237968948
O        13.2368825177        1.8841636698        2.8176114313
O        13.2369174462        0.0010310687        9.2019305954
O         3.7787476178        1.8841773969        4.3943270825
O         1.8842031997        5.6715881328        6.7989185028
O         0.0010649517       11.3497346816        1.9887774588
O         0.0011059817        5.6715822351        0.4117138554
O         1.8842139123       11.3496913857        5.2232250668
O         0.0011021800        7.5675443977        1.9920005720
O         1.8841804840        9.4601947657        6.7980192059
O         7.5675293203        1.8842034962        4.3951197117
O         9.4602609814        0.0010780572        9.2024313698
O         1.8841941575        7.5675288799        5.2199103239
O         0.0010834222        9.4602484633        0.4125951198
O         9.4601786182        1.8841712181        2.8170035283
O         7.5675536803        0.0011056645        7.6230262679
O         3.7679672251        0.0017788831        1.9896073453
O        13.2373620828        1.8889706501        6.7963289503
O         0.0018049634        5.6652647430        4.3925943830
O         1.8890207834       11.3542836490        9.1993883470
O        13.2373861385        0.0016655692        5.2205697179
O         3.7681679895        1.8891324208        0.4158917561
O         1.8891563758        5.6653519588        2.8203084090
O         0.0016945391       11.3543376038        7.6250544385
O        11.3542836412        1.8890200678        0.4156208228
O         5.6652289118        0.0018016323        5.2224122002
O         5.6653660964        1.8891455066        6.7947056650
O        11.3543326309        0.0017024422        1.9899749597
O         1.8891248856        3.7681642488        9.1991270838
O         0.0016634883       13.2373862061        4.3944426141
O         0.0017759423        3.7679575958        7.6254126181
O         1.8889737317       13.2373741315        2.8186894782
O         3.7683120613        3.7788601427        1.9905402801
O        13.2373943263       13.2369281455        6.7981611670
O        11.3495720498        5.6653178178        4.3908824323
O         5.6715953016       11.3543058654        9.2026981021
O        13.2373361386        3.7786790039        5.2200447504
O         3.7679608920       13.2368137537        0.4141726259
O         5.6716339995        5.6653341620        2.8163887022
O        11.3497004860       11.3542890277        7.6269498882
O        11.3543216459       13.2368767430        0.4138085734
O         5.6652914713        3.7789100263        5.2211485285
O         3.7787480935       11.3543408565        7.6244187352
O        13.2367882082        5.6652946427        2.8186886666
O         5.6653055415       13.2368007492        6.7963331509
O        11.3543313207        3.7787339085        1.9906051198
O        13.2368793683       11.3543211976        9.2012087322
O         3.7788917369        5.6653269929        4.3938786404
O         5.6653385356        5.6716482097        6.7986382862
O        11.3542815637       11.3496985582        1.9880761848
O        13.2368170925        3.7679792910        9.2008487306
O         3.7786725652       13.2373288837        4.3949782493
O        11.3543113681        5.6715923393        0.4123290686
O         5.6652928304       11.3495743914        5.2241430638
O         3.7788728327        3.7683004091        7.6244903601
O        13.2369222686       13.2373939368        2.8168581409
O        13.2373530415       11.3497312793        5.2224882911
O         3.7684140708        5.6716301997        0.4123331522
O         5.6715857843       13.2373382927        2.8154821228
O        11.3495986290        3.7681541628        7.6272217898
O         3.7681572276       11.3496044944        1.9878046672
O        13.2373289262        5.6715744626        6.7995443305
O        11.3497387951       13.2373504375        4.3925329578
O         5.6716384704        3.7684091938        9.2026882852
O         3.7684019971        7.5674854873        1.9913788627
O        13.2373516725        9.4602575458        6.7986618292
O         7.5674996708        5.6652983119        4.3948386736
O         9.4601860224       11.3543299611        9.2017933155
O        13.2373223191        7.5675443925        5.2192776295
O         3.7682871283        9.4600642991        0.4133007156
O         9.4600357751        5.6653429793        2.8174792087
O         7.5675285698       11.3543193904        7.6236292945
O        11.3543404273        9.4601940300        0.4132299723
O         5.6652924859        7.5674803598        5.2201788534
O         5.6653515608        9.4600282157        6.7975358026
O        11.3543160431        7.5675321969        1.9913911909
O         9.4600595818        3.7682972281        9.2017174392
O         7.5675504021       13.2373146098        4.3957519255
O         7.5674759235        3.7683970759        7.6236326082
O         9.4602591241       13.2373612167        2.8163668585
O         7.5744299572        0.0017991661        1.9888650416
O         9.4705339153        1.8891272975        6.7953964202
O         0.0017780741        9.4707222056        4.3933856114
O         1.8891566153        7.5743199300        9.1984841105
O         9.4707175233        0.0017746248        5.2216348223
O         7.5743522738        1.8891530689        0.4165349639
O         1.8891262617        9.4705405347        2.8196299666
O         0.0018055060        7.5744198282        7.6261461261
O         7.5743232388        3.7789066195        1.9901383465
O         9.4707305931       13.2368198973        6.7971090447
O        11.3496017057        9.4705271181        4.3915739666
O         5.6716349837        7.5743481837        9.2024031099
O         9.4703911492        3.7788584236        5.2207245235
O         7.5743756680       13.2367889033        0.4148991533
O         5.6716229044        9.4702934842        2.8160774076
O        11.3495686305        7.5743575663        7.6278639768
O         3.7789009236        7.5743460860        7.6248806213
O        13.2368268296        9.4707371255        2.8179080869
O        13.2367855748        7.5743866955        9.2001069849
O         3.7788581806        9.4703810010        4.3942955811
O         9.4702901431        5.6716297522        6.7989368314
O         7.5743608157       11.3495736461        1.9871531115
O         7.5743542983        5.6716390205        0.4126177617
O         9.4705204675       11.3495855821        5.2234442091
O         7.5743412947        7.5674820866        1.9911016406
O         9.4704084336        9.4600781877        6.7979801407
O         7.5674718681        9.4702792181        4.3951353947
O         9.4600274438        7.5743452382        9.2013129348
O         9.4702696428        7.5675024097        5.2198837637
O         7.5743417142        9.4600220807        0.4137127918
O         9.4600737142        9.4704012203        2.8170481821
O         7.5674887134        7.5743332697        7.6239198991
     192
 i =        3, E =     -5779.3189017431
Ti         0.0006486026        0.0006398855        0.0000007892
Ti         1.8888380111        1.8888484577        4.8075045812
Ti         0.0006694565        1.8887821386        2.4021829968
Ti         1.8887983087        0.0006689577        7.2128366222
Ti         0.0007068933        3.7757037509        0.0028355776
Ti         1.8888117172       13.2378756373        4.8059117772
Ti        11.3498384939        1.8888360011        2.4036944396
Ti         5.6711837752        0.0007162071        7.2158878133
Ti         1.8889060774        3.7757602085        7.2099483752
Ti         0.0006495711       13.2378805869        2.4037867163
Ti         5.6712092540        1.8889510696        4.8044196493
Ti        11.3498702721        0.0006595164       -0.0015276378
Ti         3.7757082219        0.0007144434       -0.0028278668
Ti        13.2378712343        1.8888018000        4.8091041662
Ti        13.2378948491        0.0006421530        7.2112474220
Ti         3.7757686466        1.8889189872        2.4050703895
Ti         1.8889483652        5.6712176140        4.8105938607
Ti         0.0006655468       11.3498791211        0.0015146231
Ti         0.0007117481        5.6711871542        2.3991209108
Ti         1.8888492587       11.3498382149        7.2113187099
Ti         0.0007221256        7.5680357242        0.0045605348
Ti         1.8889247196        9.4631626363        4.8087203410
Ti         7.5680314255        1.8889513118        2.4067766185
Ti         9.4631971194        0.0007021729        7.2140028742
Ti         1.8889489051        7.5680187494        7.2082461149
Ti         0.0007063734        9.4631982035        2.4010266519
Ti         9.4631587941        1.8889268946        4.8062999215
Ti         7.5680241734        0.0007224114       -0.0045559220
Ti         3.7758506798        3.7758581386       -0.0000007161
Ti        13.2379022067       13.2379058577        4.8075212678
Ti        11.3497431476        5.6712096886        2.4006061084
Ti         5.6712145826       11.3497334779        7.2144127644
Ti        13.2378307097        3.7757143194        7.2084192156
Ti         3.7757235200       13.2378310561        2.4066110987
Ti         5.6712461837        5.6712551969        4.8075080989
Ti        11.3498391802       11.3498435564        0.0000006851
Ti        11.3498873348       13.2378703928        2.4053025797
Ti         5.6712236540        3.7758647429        7.2129220889
Ti         3.7757574558       11.3497793373       -0.0013660028
Ti        13.2378309033        5.6711896428        4.8121612751
Ti         5.6712041035       13.2378329616        4.8028623961
Ti        11.3497618037        3.7757532839        0.0013648562
Ti        13.2378758466       11.3498634368        7.2097239142
Ti         3.7758589393        5.6712324004        2.4020977818
Ti         3.7758640267        7.5679999531        0.0016039954
Ti        13.2378521770        9.4632061621        4.8102627575
Ti         7.5679892013        5.6712410667        2.4036926572
Ti         9.4631569655       11.3497634132        7.2125226554
Ti        13.2378289319        7.5680324225        7.2066881333
Ti         3.7758513271        9.4630568105        2.4038522858
Ti         9.4630534422        5.6712432074        4.8092755114
Ti         7.5680250016       11.3497461802       -0.0030784949
Ti        11.3497727792        9.4631511114        2.4024877402
Ti         5.6712406293        7.5679833198        7.2113175443
Ti         5.6712415331        9.4630619852        4.8057349531
Ti        11.3497382833        7.5680199590        0.0030720322
Ti         9.4630513103        3.7758452636        7.2111607687
Ti         7.5680464784       13.2378297495        2.4083331206
Ti         7.5679895568        3.7758641362       -0.0016042926
Ti         9.4632100690       13.2378633946        4.8047578206
Ti         7.5679805301        7.5679872952        0.0000012096
Ti         9.4630799697        9.4630778701        4.8075086973
Ti         7.5680026354        9.4630458073        2.4054558244
Ti         9.4630401150        7.5679978717        7.2095626100
O         0.0013894793        0.0016418248        1.9899787237
O         1.8846561833        1.8876283888        6.7955047428
O         0.0016533512        1.8845596610        4.3942937593
O         1.8875719344        0.0014354566        9.1987358249
O         1.8845626274        0.0016529780        5.2207328045
O         0.0014333740        1.8875710928        0.4162869607
O         1.8876243861        1.8846593023        2.8195138129
O         0.0016433895        0.0013861171        7.6250394629
O         0.0014155899        3.7767181801        1.9895383463
O         1.8845614797       13.2368669764        6.7980483781
O        11.3510274060        1.8846581734        4.3917573615
O         5.6709133053        0.0013909374        9.2027402006
O         1.8846274874        3.7767593337        5.2210561418
O         0.0013859672       13.2368713117        0.4137710183
O         5.6709486057        1.8846008672        2.8153707683
O        11.3510802118        0.0014329908        7.6275358094
O         3.7767184603        0.0014174735        7.6254780245
O        13.2368673782        1.8845599165        2.8169757002
O        13.2368713767        0.0013848385        9.2012458448
O         3.7767601947        1.8846324895        4.3939563719
O         1.8845961109        5.6709295205        6.7996540134
O         0.0014371112       11.3510835787        1.9874812256