     192
 i =        1, E =     -5779.3180246777
Ti         0.0006651276        0.0006639046        0.0000004599
Ti        -0.0007720600       -0.0007675270        0.0000018721
Ti         0.0006643917       -0.0007942377       -0.0005922845
Ti        -0.0007957650        0.0006674213        0.0005957118
Ti         0.0006697396       -0.0012460420        0.0002817477
Ti        -0.0007967442       -0.0007137640       -0.0005928422
Ti         0.0007571164       -0.0007739306        0.0000026587
Ti        -0.0002694800        0.0006745908        0.0004069534
Ti        -0.0007435452       -0.0012352567        0.0003025478
Ti         0.0006648167       -0.0007102557       -0.0000000660
Ti        -0.0002769410       -0.0007248070        0.0001881147
Ti         0.0007780337        0.0006641907       -0.0005910357
Ti        -0.0012496432        0.0006708559       -0.0002786779
Ti        -0.0007113024       -0.0007945064        0.0005958470
Ti        -0.0007094443        0.0006642309       -0.0000039245
Ti        -0.0012361495       -0.0007495404       -0.0003046726
Ti        -0.0007284966       -0.0002745649       -0.0001832506
Ti         0.0006657884        0.0007783187        0.0005898259
Ti         0.0006739588       -0.0002699158       -0.0004044162
Ti        -0.0007795752        0.0007547270        0.0000008523
Ti         0.0006735206        0.0003146607        0.0004056971
Ti        -0.0007508538        0.0012494782       -0.0003054669
Ti         0.0003198897       -0.0007315478       -0.0001870234
Ti         0.0012589170        0.0006670447        0.0002794132
Ti        -0.0007299096        0.0003169156        0.0001844890
Ti         0.0006681101        0.0012593492       -0.0002764555
Ti         0.0012526633       -0.0007435226        0.0003071077
Ti         0.0003189321        0.0006723586       -0.0004061633
Ti        -0.0012197590       -0.0012170356       -0.0000025594
Ti        -0.0007060278       -0.0007084736        0.0000048033
Ti         0.0007090255       -0.0002710299        0.0001844962
Ti        -0.0002731025        0.0007087471       -0.0001839893
Ti        -0.0007117213       -0.0012530824       -0.0002844234
Ti        -0.0012492788       -0.0007130823        0.0002811964
Ti        -0.0002746401       -0.0002732157       -0.0000012435
Ti         0.0007581508        0.0007561760        0.0000001922
Ti         0.0007767988       -0.0007102765        0.0005923577
Ti        -0.0002774906       -0.0012084963        0.0001081261
Ti        -0.0012391168        0.0007264300        0.0003074563
Ti        -0.0007129416       -0.0002675563        0.0004051136
Ti        -0.0002704191       -0.0007146704       -0.0004071493
Ti         0.0007282509       -0.0012359388       -0.0003020936
Ti        -0.0007076790        0.0007803145       -0.0005957624
Ti        -0.0012071732       -0.0002758348       -0.0001102321
Ti        -0.0012092620        0.0003190444        0.0001095555
Ti        -0.0007125972        0.0012606296        0.0002785217
Ti         0.0003214788       -0.0002703173        0.0000022376
Ti         0.0012499930        0.0007283473       -0.0003107843
Ti        -0.0007146660        0.0003177712       -0.0004104752
Ti        -0.0012165686        0.0012336455       -0.0000002070
Ti         0.0012183479       -0.0002723878        0.0001154876
Ti         0.0003189827        0.0007096626        0.0001834539
Ti         0.0007260810        0.0012448274        0.0003084230
Ti        -0.0002733871        0.0003203104       -0.0000027753
Ti        -0.0002674684        0.0012145650       -0.0001139193
Ti         0.0007094579        0.0003208422       -0.0001804493
Ti         0.0012284566       -0.0012140848       -0.0000053678
Ti         0.0003191761       -0.0007126421        0.0004088522
Ti         0.0003207320       -0.0012050416       -0.0001118689
Ti         0.0012612994       -0.0007155580       -0.0002779167
Ti         0.0003211134        0.0003197181        0.0000014792
Ti         0.0012290849        0.0012288189       -0.0000029682
Ti         0.0003247063        0.0012129498        0.0001193092
Ti         0.0012169964        0.0003195995       -0.0001184736
O        -0.0001402127        0.0000516177       -0.0003686139
O         0.0004928876        0.0003029175       -0.0001425286
O         0.0000719904        0.0005295643       -0.0000237705
O         0.0003251991       -0.0001331172       -0.0004577448
O         0.0005348107        0.0000674653        0.0000226566
O        -0.0001333591        0.0003254136        0.0004601223
O         0.0003068998        0.0004960047        0.0001410811
O         0.0000456785       -0.0001436451        0.0003700737
O        -0.0001306799       -0.0006280825       -0.0004053828
O         0.0005355935       -0.0000790124       -0.0000201315
O        -0.0003249139        0.0004994467       -0.0001339138
O        -0.0001327272       -0.0001242604       -0.0005683916
O         0.0004337931       -0.0006267877        0.0000998608
O        -0.0001446394       -0.0000596774        0.0003664607
O        -0.0001338023        0.0004233813        0.0002717166
O        -0.0003456296       -0.0001332809        0.0004548998
O        -0.0006273340       -0.0001313021        0.0004017408
O        -0.0000844023        0.0005320548        0.0000179705
O        -0.0000560956       -0.0001431062       -0.0003710494
O        -0.0006262405        0.0004335003       -0.0001040573
O         0.0004146297       -0.0001322876       -0.0002705453
O        -0.0001319699       -0.0003406654       -0.0004519884
O        -0.0001297398       -0.0001353056        0.0005685943
O         0.0005051916       -0.0003296054        0.0001339601
O        -0.0001262677        0.0001527610       -0.0005663097
O         0.0004406908        0.0006196606       -0.0000953090
O         0.0001497863        0.0004192222       -0.0002672801
O         0.0006228073       -0.0001285305       -0.0003996074
O         0.0004233220        0.0001511109        0.0002668775
O        -0.0001292917        0.0006194795        0.0003985467
O         0.0006194154        0.0004395556        0.0000942870
O         0.0001486324       -0.0001272325        0.0005647073
O        -0.0005806869        0.0001018031        0.0000460164
O         0.0001539745        0.0003245009       -0.0004611457
O         0.0001205471       -0.0006285081        0.0000598091
O         0.0003068059       -0.0005098814       -0.0001486997
O         0.0001721536        0.0000469446        0.0003738618
O        -0.0005722245        0.0003067161        0.0000752876
O         0.0003228120       -0.0006214772        0.0000450678
O         0.0000748269       -0.0005538809        0.0000304198
O        -0.0005140475        0.0003048549        0.0001468713
O        -0.0006286591        0.0001180509       -0.0000593410
O        -0.0006201640        0.0003215256       -0.0000437378
O        -0.0005563212        0.0000739524       -0.0000322793
O         0.0003071233       -0.0005717858       -0.0000742838
O         0.0000477608        0.0001728218       -0.0003794382
O         0.0001031282       -0.0005790855       -0.0000453993
O         0.0003256065        0.0001500378        0.0004653833
O        -0.0005731854       -0.0006091203       -0.0000166953
O         0.0001661275       -0.0000579606       -0.0003684351
O        -0.0003382146       -0.0006221653       -0.0000384986
O        -0.0001339261       -0.0004314571       -0.0002733581
O         0.0001478438       -0.0006263876        0.0004084585
O        -0.0005776859       -0.0001160220       -0.0000488195
O        -0.0001257613       -0.0006244290        0.0000661902
O        -0.0003262770       -0.0005210967        0.0001388192
O        -0.0005528571       -0.0000814434        0.0000263068
O        -0.0006254947       -0.0005934551       -0.0000670376
O        -0.0006271225       -0.0004505380        0.0001048578
O        -0.0001304501       -0.0006270016       -0.0000627273
O        -0.0006254846       -0.0001301131        0.0000602519
O        -0.0004516684       -0.0006261087       -0.0001055858
O        -0.0000823055       -0.0005529894       -0.0000254451
O        -0.0005915029       -0.0006245043        0.0000618434
O        -0.0006236364       -0.0001262352       -0.0000657074
O        -0.0005133385       -0.0003256283       -0.0001372654
O        -0.0001136187       -0.0005813048        0.0000472620
O        -0.0006302846        0.0001560480       -0.0004096565
O        -0.0004349372       -0.0001344738        0.0002717858
O        -0.0006230527       -0.0003445194        0.0000399821
O        -0.0006078435       -0.0005724359        0.0000190414
O        -0.0000614907        0.0001648109        0.0003734921
O         0.0001578579       -0.0003485864        0.0004585142
O        -0.0005648148       -0.0001294650        0.0001841306
O        -0.0001328616        0.0001384548        0.0005691001
O        -0.0003266102       -0.0005714890        0.0000698710
O        -0.0005699182       -0.0003215508       -0.0000677373
O         0.0001417570       -0.0001343583       -0.0005693264
O        -0.0003459433        0.0001592016       -0.0004612377
O        -0.0001268110       -0.0005652188       -0.0001826033
O        -0.0005658220        0.0001478691       -0.0001795577
O         0.0001425848        0.0006242578       -0.0003999400
O         0.0001390488       -0.0006266884       -0.0000663609
O         0.0006176630       -0.0004503000       -0.0000985641
O         0.0001447145        0.0001489232        0.0005684926
O        -0.0005704973        0.0005971534        0.0000116457
O         0.0005813995       -0.0006247165       -0.0000699879
O         0.0001508341       -0.0004351654        0.0002712233
O        -0.0004516446        0.0006190831        0.0000965474
O        -0.0006267086        0.0001411350        0.0000678278
O        -0.0006236899        0.0005861682        0.0000688826
O        -0.0004328956        0.0001505023       -0.0002729307
O         0.0006021936       -0.0005736498       -0.0000131587
O         0.0001475453        0.0001504910       -0.0005683007
O         0.0001451330       -0.0005655180        0.0001837252
O         0.0006223160        0.0001440036        0.0004006384
O         0.0006789084        0.0001216839        0.0000614965
O         0.0005270218        0.0003080706       -0.0000780698
O         0.0000947008        0.0005338912        0.0000431296
O         0.0003189056        0.0006726897       -0.0000422203
O         0.0005342224        0.0000960029       -0.0000434196
O         0.0006725067        0.0003222115        0.0000400836
O         0.0003095888        0.0005237633        0.0000771102
O         0.0001205222        0.0006789413       -0.0000587858
O         0.0006745827       -0.0005932507        0.0000658176
O         0.0005329618       -0.0001058206        0.0000478131
O        -0.0003291102        0.0005281635       -0.0000714185
O        -0.0001261660        0.0006753415       -0.0000680682
O         0.0005277763       -0.0006150508        0.0000231837
O         0.0006774436       -0.0001354490       -0.0000605322
O        -0.0001283161        0.0005235802        0.0001884422
O        -0.0003368606        0.0006727579        0.0000410535
O        -0.0005898493        0.0006765889       -0.0000656167
O        -0.0001126071        0.0005337657       -0.0000475149
O        -0.0001295034        0.0006777979        0.0000616523
O        -0.0006152760        0.0005297102       -0.0000225228
O         0.0005236171       -0.0001264828       -0.0001900954
O         0.0006726666       -0.0003365715       -0.0000399490
O         0.0006749255       -0.0001259953        0.0000689914
O         0.0005282558       -0.0003285836        0.0000716231
O         0.0006737654        0.0001424724       -0.0000730882
O         0.0005287873        0.0006067952       -0.0000170695
O         0.0001421564        0.0005278831       -0.0001889987
O         0.0005826889        0.0006749014        0.0000665586
O         0.0005266959        0.0001401721        0.0001897642
O         0.0006744823        0.0005825128       -0.0000680653
O         0.0006028040        0.0005321852        0.0000188001
O         0.0001419630        0.0006747328        0.0000724478
     192
 i =        2, E =     -5779.3185964691
Ti         0.0000770835        0.0000785951       -0.0000015297
Ti        -0.0004974202       -0.0004989794        0.0000006091
Ti         0.0000744006       -0.0004930744        0.0004910840
Ti        -0.0004954838        0.0000752638       -0.0004902362
Ti         0.0000781240       -0.0010759185        0.0000486788
Ti        -0.0004964823       -0.0000868802        0.0004821045
Ti         0.0004675297       -0.0005007562       -0.0000161603
Ti        -0.0007243023        0.0000735839       -0.0000794330
Ti        -0.0005021195       -0.0010752229       -0.0005366918
Ti         0.0000779138       -0.0000887850        0.0000091142
Ti        -0.0007187713       -0.0005128134       -0.0004222927
Ti         0.0004634634        0.0000761966        0.0005121723
Ti        -0.0010791580        0.0000768814       -0.0000472644
Ti        -0.0000880889       -0.0004957295       -0.0004808647
Ti        -0.0000894905        0.0000803655       -0.0000093633
Ti        -0.0010754472       -0.0005057709        0.0005391209
Ti        -0.0005147075       -0.0007196151        0.0004248278
Ti         0.0000757948        0.0004625892       -0.0005109076
Ti         0.0000737626       -0.0007252877        0.0000825109
Ti        -0.0005013990        0.0004672954        0.0000217525
Ti         0.0000723178        0.0007845959       -0.0000809696
Ti        -0.0005033643        0.0010539726        0.0005294195
Ti         0.0007758578       -0.0005155224        0.0004232611
Ti         0.0010570550        0.0000763492        0.0000389901
Ti        -0.0005145297        0.0007766846       -0.0004258939
Ti         0.0000759192        0.0010572353       -0.0000393533
Ti         0.0010558446       -0.0005031079       -0.0005280800
Ti         0.0007885519        0.0000726710        0.0000780514
Ti        -0.0010674155       -0.0010689964       -0.0000013288
Ti        -0.0000891296       -0.0000914669       -0.0000012333
Ti         0.0004816611       -0.0007175727       -0.0004410220
Ti        -0.0007187295        0.0004828766        0.0004395627
Ti        -0.0000906405       -0.0010821207       -0.0000586732
Ti        -0.0010810934       -0.0000889332        0.0000574962
Ti        -0.0007152509       -0.0007171756       -0.0000017797
Ti         0.0004680162        0.0004652381       -0.0000010048
Ti         0.0004615684       -0.0000862691       -0.0004995310
Ti        -0.0007114360       -0.0010761609       -0.0000946451
Ti        -0.0010766934        0.0004714291       -0.0005549520
Ti        -0.0000867626       -0.0007251551       -0.0000760836
Ti        -0.0007288366       -0.0000868230        0.0000732834
Ti         0.0004722688       -0.0010743483        0.0005548692
Ti        -0.0000880702        0.0004654477        0.0004998551
Ti        -0.0010749924       -0.0007132163        0.0000921137
Ti        -0.0010749340        0.0007705370       -0.0000923296
Ti        -0.0000923257        0.0010575101        0.0000464903
Ti         0.0007741498       -0.0007117432        0.0000032150
Ti         0.0010559793        0.0004719171        0.0005452471
Ti        -0.0000885478        0.0007878278        0.0000712673
Ti        -0.0010684930        0.0010501628        0.0000104461
Ti         0.0010555232       -0.0007134181       -0.0000785736
Ti         0.0007753632        0.0004805507       -0.0004412684
Ti         0.0004709045        0.0010562877       -0.0005445586
Ti        -0.0007131902        0.0007756359       -0.0000001498
Ti        -0.0007140105        0.0010531345        0.0000843343
Ti         0.0004825255        0.0007771132        0.0004420212
Ti         0.0010482427       -0.0010645405       -0.0000102640
Ti         0.0007870078       -0.0000872444       -0.0000707863
Ti         0.0007717309       -0.0010736887        0.0000898769
Ti         0.0010575828       -0.0000953018       -0.0000466669
Ti         0.0007748249        0.0007725233        0.0000001178
Ti         0.0010434625        0.0010465494       -0.0000024234
Ti         0.0007718952        0.0010540309       -0.0000778372
Ti         0.0010566798        0.0007709605        0.0000784945
O         0.0000399384        0.0000743768       -0.0000955847
O         0.0002643744        0.0000006635        0.0005077436
O         0.0000535410        0.0002564768        0.0002516296
O         0.0000109676        0.0000393606        0.0001822278
O         0.0002553271        0.0000527573       -0.0002519736
O         0.0000391122        0.0000130556       -0.0001804829
O         0.0000052550        0.0002660180       -0.0005096131
O         0.0000766646        0.0000389286        0.0000947456
O         0.0000330171        0.0002433322       -0.0004693987
O         0.0002528782       -0.0000278918        0.0002615323
O         0.0000039912        0.0002645198        0.0005367278
O         0.0000850356        0.0000235272       -0.0003919036
O         0.0002759358        0.0002246140        0.0001366668
O         0.0000380779       -0.0000484486        0.0000864429
O         0.0000799731        0.0002674529        0.0000640827
O        -0.0000018561        0.0000393213       -0.0002085035
O         0.0002471071        0.0000330750        0.0004679308
O        -0.0000296976        0.0002544689       -0.0002655732
O        -0.0000486468        0.0000395356       -0.0000856958
O         0.0002241157        0.0002746256       -0.0001377865
O         0.0002657673        0.0000851966       -0.0000660046
O         0.0000400347       -0.0000035909        0.0002088431
O         0.0000223019        0.0000812567        0.0003908154
O         0.0002640444        0.0000039515       -0.0005360784
O         0.0000235854       -0.0000917633       -0.0003962702
O         0.0002738812       -0.0002449678       -0.0001250598
O        -0.0000916534        0.0002662680       -0.0000692415
O        -0.0002666593        0.0000331420       -0.0004581457
O         0.0002677852       -0.0000903679        0.0000688805
O         0.0000330444       -0.0002613335        0.0004573477
O        -0.0002389176        0.0002760727        0.0001246797
O        -0.0000962550        0.0000227921        0.0003955550
O         0.0005703871        0.0000226714        0.0003082429
O        -0.0000270470        0.0000152156        0.0001801841
O         0.0000173118       -0.0005572782        0.0004519207
O         0.0000047442       -0.0002414741        0.0005007799
O        -0.0000259709        0.0000762347        0.0001003417
O         0.0005532263       -0.0000184217       -0.0005382114
O         0.0000053578       -0.0005450913       -0.0006864170
O         0.0000599701       -0.0002321292       -0.0002440278
O        -0.0002409415        0.0000036830       -0.0005001833
O        -0.0005570271        0.0000201779       -0.0004504449
O        -0.0005446463        0.0000110457        0.0006859187
O        -0.0002308684        0.0000540773        0.0002401488
O        -0.0000158759        0.0005541282        0.0005391119
O         0.0000764925       -0.0000261742       -0.0000985640
O         0.0000235571        0.0005717012       -0.0003086084
O         0.0000143069       -0.0000293184       -0.0001796520
O         0.0005232302        0.0002049990       -0.0001475553
O        -0.0000275423       -0.0000546341       -0.0000856538
O         0.0000005515       -0.0005442292        0.0007143937
O         0.0000823534       -0.0002462852       -0.0000721257
O        -0.0000176546        0.0002447398        0.0004724963
O         0.0005715809        0.0000023065       -0.0003190091
O         0.0000959337       -0.0005421145       -0.0000915076
O        -0.0000003189       -0.0002414033       -0.0005284607
O        -0.0002283246       -0.0000268609       -0.0002523464
O        -0.0005463015        0.0002336344       -0.0000232625
O         0.0002251366       -0.0002547930        0.0001443378
O         0.0000078918       -0.0005575509       -0.0004612274
O        -0.0005562103        0.0000011924        0.0004607507
O        -0.0002531498        0.0002287366       -0.0001456759
O        -0.0000287590       -0.0002285896        0.0002542711
O         0.0002394090       -0.0005461714        0.0000221303
O        -0.0005425166        0.0000917744        0.0000920297
O        -0.0002401306        0.0000021590        0.0005278602
O        -0.0000005547        0.0005674026        0.0003194224
O         0.0002481751       -0.0000162848       -0.0004732404
O        -0.0002472981        0.0000826858        0.0000709790
O        -0.0005443657       -0.0000013912       -0.0007148342
O         0.0001993265        0.0005255967        0.0001469784
O        -0.0000510139       -0.0000276094        0.0000855418
O        -0.0000245805       -0.0000019360       -0.0002044795
O         0.0005042550        0.0000828658        0.0001054903
O         0.0000840565       -0.0000125142        0.0003916323
O         0.0000205444        0.0005553232       -0.0005666128
O         0.0005555126        0.0000192585        0.0005662247
O        -0.0000105207        0.0000842036       -0.0003916794
O        -0.0000041918       -0.0000244679        0.0002056411
O         0.0000808039        0.0005050825       -0.0001038673
O         0.0005064088       -0.0000903761       -0.0001084750
O        -0.0000208390       -0.0002650573       -0.0004580331
O        -0.0001093340       -0.0005425988        0.0000855032
O        -0.0002426173       -0.0002527014       -0.0001306530
O        -0.0000093872       -0.0000942304        0.0003973405
O         0.0005277066       -0.0002178253        0.0001318243
O        -0.0002549522       -0.0005464731       -0.0000373814
O        -0.0000903517       -0.0002484061        0.0000775752
O        -0.0002549952       -0.0002455576        0.0001298788
O        -0.0005423930       -0.0001021874       -0.0000859166
O        -0.0005457938       -0.0002516443        0.0000368287
O        -0.0002473214       -0.0000921637       -0.0000778523
O        -0.0002173646        0.0005261858       -0.0001314514
O        -0.0000951806       -0.0000077496       -0.0003984829
O        -0.0000879252        0.0005075175        0.0001108169
O        -0.0002635725       -0.0000230715        0.0004566966
O         0.0005440273        0.0000210626        0.0004550240
O        -0.0005704215       -0.0000195703        0.0005277508
O         0.0000246513       -0.0005866927        0.0002981405
O         0.0000053989        0.0005319946        0.0006883506
O        -0.0005855613        0.0000262674       -0.0002975591
O         0.0005307388        0.0000073691       -0.0006872999
O        -0.0000174354       -0.0005719690       -0.0005293202
O         0.0000184453        0.0005447453       -0.0004526248
O         0.0005330450        0.0002319694        0.0000201573
O        -0.0005874207       -0.0000004861        0.0003097532
O         0.0000229817       -0.0005693102        0.0005578587
O         0.0000942086        0.0005273019        0.0000852778
O        -0.0005401495        0.0002036857        0.0001546879
O         0.0005459639        0.0000066690       -0.0004616505
O         0.0000841859       -0.0005195277        0.0001112901
O         0.0000017311        0.0005309089       -0.0007136846
O         0.0002355620        0.0005325152       -0.0000201084
O        -0.0000030650       -0.0005894002       -0.0003093042
O         0.0000092977        0.0005451920        0.0004646957
O         0.0002026260       -0.0005386587       -0.0001557323
O        -0.0005191242        0.0000835811       -0.0001124778
O         0.0005313900        0.0000003777        0.0007138291
O         0.0005270287        0.0000930390       -0.0000860662
O        -0.0005676349        0.0000305600       -0.0005570472
O         0.0005270197       -0.0001041240        0.0000781637
O        -0.0005433954       -0.0002212139       -0.0001399376
O        -0.0000871574       -0.0005171061       -0.0001162879
O        -0.0002515961        0.0005328164        0.0000348200
O        -0.0005156516       -0.0000946657        0.0001160426
O         0.0005323928       -0.0002483437       -0.0000357299
O        -0.0002199963       -0.0005419810        0.0001399385
O        -0.0001070479        0.0005282649       -0.0000777780
     192
 i =        3, E =     -5779.3189017431
Ti         0.0000597270        0.0000608680       -0.0000003980
Ti        -0.0000421786       -0.0000433450        0.0000006186
Ti         0.0000520048       -0.0000326324        0.0005158101
Ti        -0.0000357434        0.0000521848       -0.0005175593
Ti         0.0000508433       -0.0000672249        0.0002553059
Ti        -0.0000356745       -0.0000415408        0.0005079557
Ti         0.0000411326       -0.0000431671       -0.0000268900
Ti        -0.0004000240        0.0000410605        0.0003530381
Ti        -0.0000476838       -0.0000779862       -0.0007600552
Ti         0.0000605405       -0.0000507833        0.0000081162
Ti        -0.0004029919       -0.0000635911       -0.0008661737
Ti         0.0000335195        0.0000528055        0.0005450822
Ti        -0.0000683758        0.0000504637       -0.0002536395
Ti        -0.0000426194       -0.0000343401       -0.0005059875
Ti        -0.0000518217        0.0000620648       -0.0000089828
Ti        -0.0000785205       -0.0000488253        0.0007613534
Ti        -0.0000646893       -0.0004038622        0.0008673997
Ti         0.0000520817        0.0000316447       -0.0005429575
Ti         0.0000417556       -0.0004016459       -0.0003515225
Ti        -0.0000444863        0.0000402475        0.0000278476
Ti         0.0000402002        0.0004120373        0.0003479141
Ti        -0.0000476121        0.0000547601        0.0007379203
Ti         0.0004116698       -0.0000631907        0.0008613680
Ti         0.0000459494        0.0000507331        0.0002312801
Ti        -0.0000635177        0.0004129903       -0.0008631919
Ti         0.0000511989        0.0000452982       -0.0002329510
Ti         0.0000557353       -0.0000484341       -0.0007366114
Ti         0.0004137953        0.0000408550       -0.0003500436
Ti        -0.0000824482       -0.0000830171        0.0000000863
Ti        -0.0000517423       -0.0000528824       -0.0000007489
Ti         0.0000598616       -0.0004033497       -0.0008921062
Ti        -0.0004029957        0.0000605694        0.0008920431
Ti        -0.0000410663       -0.0000703705       -0.0002653191
Ti        -0.0000696697       -0.0000400603        0.0002645727
Ti        -0.0004223057       -0.0004229623       -0.0000013299
Ti         0.0000399097        0.0000394139       -0.0000002920
Ti         0.0000323997       -0.0000425476       -0.0005343235
Ti        -0.0004081719       -0.0000991331        0.0001337770
Ti        -0.0000769379        0.0000436704       -0.0007868057
Ti        -0.0000321741       -0.0004008982        0.0003604058
Ti        -0.0004029441       -0.0000324607       -0.0003608864
Ti         0.0000449187       -0.0000777664        0.0007870791
Ti        -0.0000430949        0.0000343135        0.0005331432
Ti        -0.0000986308       -0.0004096270       -0.0001350623
Ti        -0.0000969064        0.0004177970        0.0001277825
Ti        -0.0000432420        0.0000454907        0.0002407571
Ti         0.0004304367       -0.0004205968       -0.0000064696
Ti         0.0000566158        0.0000460339        0.0007647444
Ti        -0.0000333668        0.0004120893       -0.0003577251
Ti        -0.0000827922        0.0000627924        0.0000238190
Ti         0.0000798041       -0.0004084361        0.0001590062
Ti         0.0004118476        0.0000577576       -0.0008864054
Ti         0.0000451710        0.0000571101       -0.0007640578
Ti        -0.0004208652        0.0004316869        0.0000087757
Ti        -0.0004100084        0.0000778223       -0.0001566153
Ti         0.0000590194        0.0004129580        0.0008870336
Ti         0.0000621871       -0.0000814698       -0.0000222660
Ti         0.0004116362       -0.0000341267        0.0003572083
Ti         0.0004183153       -0.0000969808       -0.0001284191
Ti         0.0000465590       -0.0000449519       -0.0002394560
Ti         0.0004309091        0.0004302706       -0.0000005765
Ti         0.0000604289        0.0000615282       -0.0000005718
Ti         0.0004159663        0.0000786521        0.0001511048
Ti         0.0000792828        0.0004172665       -0.0001512646
O        -0.0000860386       -0.0001929294        0.0001637918
O        -0.0000029055        0.0000345860        0.0006322065
O        -0.0002022265       -0.0000017833        0.0001077299
O         0.0000573356       -0.0000868589        0.0006707374
O        -0.0000020936       -0.0002014383       -0.0001089598
O        -0.0000865666        0.0000563622       -0.0006711295
O         0.0000363647       -0.0000040607       -0.0006321721
O        -0.0001913331       -0.0000854209       -0.0001630497
O        -0.0000793727        0.0002960273       -0.0001824260
O        -0.0000017353        0.0002255653        0.0001079356
O        -0.0000236719       -0.0000044522        0.0006496188
O         0.0002429824       -0.0000758370       -0.0001179996
O         0.0000096022        0.0002812298        0.0002622978
O        -0.0000852021        0.0002171303       -0.0001618657
O         0.0002334780        0.0000181113        0.0002204536
O        -0.0000443676       -0.0000867780       -0.0006878748
O         0.0002974663       -0.0000797178        0.0001830638
O         0.0002249925       -0.0000017506       -0.0001087854
O         0.0002184491       -0.0000851487        0.0001619925
O         0.0002806186        0.0000086611       -0.0002619652
O         0.0000199301        0.0002369425       -0.0002219004
O        -0.0000875227       -0.0000464220        0.0006881991