 DBCSR| CPU Multiplication driver                                           XSMM (U)
 DBCSR| Multrec recursion limit                                              512 (U)
 DBCSR| Multiplication stack size                                           1000 (D)
 DBCSR| Maximum elements for images                                    UNLIMITED (U)
 DBCSR| Multiplicative factor virtual images                                   1 (U)
 DBCSR| Use multiplication densification                                       T (D)
 DBCSR| Multiplication size stacks                                             3 (U)
 DBCSR| Use memory pool for CPU allocation                                     F (U)
 DBCSR| Number of 3D layers                                               SINGLE (U)
 DBCSR| Use MPI memory allocation                                              F (U)
 DBCSR| Use RMA algorithm                                                      F (U)
 DBCSR| Use Communication thread                                               T (U)
 DBCSR| Communication thread load                                             87 (D)
 DBCSR| MPI: My process id                                                     0
 DBCSR| MPI: Number of processes                                             128
 DBCSR| OMP: Current number of threads                                         1
 DBCSR| OMP: Max number of threads                                             1
 DBCSR| Split modifier for TAS multiplication algorithm                  1.0E+00 (U)


  **** **** ******  **  PROGRAM STARTED AT               2025-06-19 09:33:52.592
 ***** ** ***  *** **   PROGRAM STARTED ON                             nid001315
 **    ****   ******    PROGRAM STARTED BY                                cahart
 ***** **    ** ** **   PROGRAM PROCESS ID                                 52179
  **** **  *******  **  PROGRAM STARTED IN /mnt/lustre/a2fs-work2/work/e05/e05/c
                                           ahart/postdoc2/work/group/tio2/anatas
                                           e/cell-441/geo-opt/mp-390/hole/from-n
                                           eutral/pbe-u-o/u-2.5

 CP2K| version string:                                       CP2K version 2024.3
 CP2K| source code revision number:                                  git:6712648
 CP2K| cp2kflags: omp libint fftw3 libxc libgrpp elpa parallel scalapack cosma x
 CP2K|            smm plumed2 spglib mkl sirius libvori libbqb libvdwxc hdf5
 CP2K| is freely available from                            https://www.cp2k.org/
 CP2K| Program compiled at                       Thu 12 Sep 2024 10:20:47 AM BST
 CP2K| Program compiled on                                                  ln04
 CP2K| Program compiled for                                                local
 CP2K| Data directory path    /mnt/lustre/a2fs-work1/work/y07/shared/apps/core/c
 CP2K| Input file name                                                 input.inp

 GLOBAL| Force Environment number                                              1
 GLOBAL| Basis set file name                                        BASIS_MOLOPT
 GLOBAL| Potential file name                                      GTH_POTENTIALS
 GLOBAL| MM Potential file name                                     MM_POTENTIAL
 GLOBAL| Coordinate file name                                         system.xyz
 GLOBAL| Method name                                                        CP2K
 GLOBAL| Project name                                                       tio2
 GLOBAL| Run type                                                        GEO_OPT
 GLOBAL| FFT library                                                       FFTW3
 GLOBAL| Diagonalization library                                            ELPA
 GLOBAL| DGEMM library                                                      BLAS
 GLOBAL| Minimum number of eigenvectors for ELPA usage                        16
 GLOBAL| Orthonormality check for eigenvectors                          DISABLED
 GLOBAL| Matrix multiplication library                                     COSMA
 GLOBAL| All-to-all communication in single precision                          F
 GLOBAL| FFTs using library dependent lengths                                  F
 GLOBAL| Grid backend                                                       AUTO
 GLOBAL| Global print level                                               MEDIUM
 GLOBAL| MPI I/O enabled                                                       T
 GLOBAL| Total number of message passing processes                           128
 GLOBAL| Number of threads for this process                                    1
 GLOBAL| This output is from process                                           0
 GLOBAL| Stack size for threads created by OpenMP (OMP_STACKSIZE)        default
 GLOBAL| CPU model name                          AMD EPYC 7742 64-Core Processor
 GLOBAL| CPUID                                                              1002

 MEMORY| system memory details [Kb]
 MEMORY|                        rank 0           min           max       average
 MEMORY| MemTotal            263341976     263341976     263341976     263341976
 MEMORY| MemFree             233911312     233911312     233911312     233911312
 MEMORY| Buffers                     0             0             0             0
 MEMORY| Cached                1905384       1905384       1905384       1905384
 MEMORY| Slab                  6076708       6076704       6076708       6076705
 MEMORY| SReclaimable           921944        921944        921944        921944
 MEMORY| MemLikelyFree       236738640     236738640     236738640     236738640


 *** Fundamental physical constants (SI units) ***

 *** Literature: B. J. Mohr and B. N. Taylor,
 ***             CODATA recommended values of the fundamental physical
 ***             constants: 2006, Web Version 5.1
 ***             http://physics.nist.gov/constants

 Speed of light in vacuum [m/s]                             2.99792458000000E+08
 Magnetic constant or permeability of vacuum [N/A**2]       1.25663706143592E-06
 Electric constant or permittivity of vacuum [F/m]          8.85418781762039E-12
 Planck constant (h) [J*s]                                  6.62606896000000E-34
 Planck constant (h-bar) [J*s]                              1.05457162825177E-34
 Elementary charge [C]                                      1.60217648700000E-19
 Electron mass [kg]                                         9.10938215000000E-31
 Electron g factor [ ]                                     -2.00231930436220E+00
 Proton mass [kg]                                           1.67262163700000E-27
 Fine-structure constant                                    7.29735253760000E-03
 Rydberg constant [1/m]                                     1.09737315685270E+07
 Avogadro constant [1/mol]                                  6.02214179000000E+23
 Boltzmann constant [J/K]                                   1.38065040000000E-23
 Atomic mass unit [kg]                                      1.66053878200000E-27
 Bohr radius [m]                                            5.29177208590000E-11

 *** Conversion factors ***

 [u] -> [a.u.]                                              1.82288848426455E+03
 [Angstrom] -> [Bohr] = [a.u.]                              1.88972613288564E+00
 [a.u.] = [Bohr] -> [Angstrom]                              5.29177208590000E-01
 [a.u.] -> [s]                                              2.41888432650478E-17
 [a.u.] -> [fs]                                             2.41888432650478E-02
 [a.u.] -> [J]                                              4.35974393937059E-18
 [a.u.] -> [N]                                              8.23872205491840E-08
 [a.u.] -> [K]                                              3.15774647902944E+05
 [a.u.] -> [kJ/mol]                                         2.62549961709828E+03
 [a.u.] -> [kcal/mol]                                       6.27509468713739E+02
 [a.u.] -> [Pa]                                             2.94210107994716E+13
 [a.u.] -> [bar]                                            2.94210107994716E+08
 [a.u.] -> [atm]                                            2.90362800883016E+08
 [a.u.] -> [eV]                                             2.72113838565563E+01
 [a.u.] -> [Hz]                                             6.57968392072181E+15
 [a.u.] -> [1/cm] (wave numbers)                            2.19474631370540E+05
 [a.u./Bohr**2] -> [1/cm]                                   5.14048714338585E+03
 

 CELL_TOP| Volume [angstrom^3]:                                      2198.132028
 CELL_TOP| Vector a [angstrom    15.120     0.000     0.000   |a| =    15.120000
 CELL_TOP| Vector b [angstrom     0.000    15.120     0.000   |b| =    15.120000
 CELL_TOP| Vector c [angstrom     0.000     0.000     9.615   |c| =     9.615020
 CELL_TOP| Angle (b,c), alpha [degree]:                                90.000000
 CELL_TOP| Angle (a,c), beta  [degree]:                                90.000000
 CELL_TOP| Angle (a,b), gamma [degree]:                                90.000000
 CELL_TOP| Requested initial symmetry:                       MONOCLINIC_GAMMA_AB
 CELL_TOP| Numerically orthorhombic:                                         YES
 CELL_TOP| Periodicity                                                       XYZ

 *** WARNING in atoms_input.F:123 :: Overwriting coordinates. Active    ***
 *** coordinates read from &COORD section. Active coordinates READ from ***
 *** &COORD section                                                     ***


 GENERATE|  Preliminary Number of Bonds generated:                             0
 GENERATE|  Achieved consistency in connectivity generation.

 CELL| Volume [angstrom^3]:                                          2198.132028
 CELL| Vector a [angstrom]:      15.120     0.000     0.000   |a| =    15.120000
 CELL| Vector b [angstrom]:       0.000    15.120     0.000   |b| =    15.120000
 CELL| Vector c [angstrom]:       0.000     0.000     9.615   |c| =     9.615020
 CELL| Angle (b,c), alpha [degree]:                                    90.000000
 CELL| Angle (a,c), beta  [degree]:                                    90.000000
 CELL| Angle (a,b), gamma [degree]:                                    90.000000
 CELL| Requested initial symmetry:                           MONOCLINIC_GAMMA_AB
 CELL| Numerically orthorhombic:                                             YES
 CELL| Periodicity                                                           XYZ

 CELL_REF| Volume [angstrom^3]:                                      2198.132028
 CELL_REF| Vector a [angstrom    15.120     0.000     0.000   |a| =    15.120000
 CELL_REF| Vector b [angstrom     0.000    15.120     0.000   |b| =    15.120000
 CELL_REF| Vector c [angstrom     0.000     0.000     9.615   |c| =     9.615020
 CELL_REF| Angle (b,c), alpha [degree]:                                90.000000
 CELL_REF| Angle (a,c), beta  [degree]:                                90.000000
 CELL_REF| Angle (a,b), gamma [degree]:                                90.000000
 CELL_REF| Requested initial symmetry:                       MONOCLINIC_GAMMA_AB
 CELL_REF| Numerically orthorhombic:                                         YES
 CELL_REF| Periodicity                                                       XYZ

 *******************************************************************************
 *******************************************************************************
 **                                                                           **
 **     #####                         ##              ##                      **
 **    ##   ##            ##          ##              ##                      **
 **   ##     ##                       ##            ######                    **
 **   ##     ##  ##   ##  ##   #####  ##  ##   ####   ##    #####    #####    **
 **   ##     ##  ##   ##  ##  ##      ## ##   ##      ##   ##   ##  ##   ##   **
 **   ##  ## ##  ##   ##  ##  ##      ####     ###    ##   ######   ######    **
 **    ##  ###   ##   ##  ##  ##      ## ##      ##   ##   ##       ##        **
 **     #######   #####   ##   #####  ##  ##  ####    ##    #####   ##        **
 **           ##                                                    ##        **
 **                                                                           **
 **                                                ... make the atoms dance   **
 **                                                                           **
 **            Copyright (C) by CP2K developers group (2000-2024)             **
 **                      J. Chem. Phys. 152, 194103 (2020)                    **
 **                                                                           **
 *******************************************************************************

 DFT| Spin unrestricted (spin-polarized) Kohn-Sham calculation               UKS
 DFT| Multiplicity                                                             2
 DFT| Number of spin states                                                    2
 DFT| Charge                                                                   1
 DFT| Self-interaction correction (SIC)                                       NO
 DFT| Cutoffs: density                                              1.000000E-10
 DFT|          gradient                                             1.000000E-10
 DFT|          tau                                                  1.000000E-10
 DFT|          cutoff_smoothing_range                               0.000000E+00
 DFT| XC density smoothing                                                  NONE
 DFT| XC derivatives                                                          PW

 DFT+U| Method                                                          MULLIKEN
 DFT+U| Check atomic kind information for details

 FUNCTIONAL| PBE:
 FUNCTIONAL| J.P.Perdew, K.Burke, M.Ernzerhof, Phys. Rev. Letter, vol. 77, n 18,
 FUNCTIONAL|  pp. 3865-3868, (1996) {spin polarized}                            


 QS| Method:                                                                 GPW
 QS| Density plane wave grid type                        NON-SPHERICAL FULLSPACE
 QS| Number of grid levels:                                                    4
 QS| Density cutoff [a.u.]:                                                300.0
 QS| Multi grid cutoff [a.u.]: 1) grid level                               300.0
 QS|                           2) grid level                               100.0
 QS|                           3) grid level                                33.3
 QS|                           4) grid level                                11.1
 QS| Grid level progression factor:                                          3.0
 QS| Relative density cutoff [a.u.]:                                        20.0
 QS| Interaction thresholds: eps_pgf_orb:                                1.0E-06
 QS|                         eps_filter_matrix:                          0.0E+00
 QS|                         eps_core_charge:                            1.0E-14
 QS|                         eps_rho_gspace:                             1.0E-12
 QS|                         eps_rho_rspace:                             1.0E-12
 QS|                         eps_gvg_rspace:                             1.0E-06
 QS|                         eps_ppl:                                    1.0E-02
 QS|                         eps_ppnl:                                   1.0E-08


 ATOMIC KIND INFORMATION

  1. Atomic kind: Ti                                    Number of atoms:      64

     Orbital Basis Set                                    DZVP-MOLOPT-SR-GTH-q12

       Number of orbital shell sets:                                           1
       Number of orbital shells:                                               8
       Number of primitive Cartesian functions:                                6
       Number of Cartesian basis functions:                                   31
       Number of spherical basis functions:                                   26
       Norm type:                                                              2

       Normalised Cartesian orbitals:

                        Set   Shell   Orbital            Exponent    Coefficient

                          1       1    2s                7.884570       0.015554
                                                         3.894698       0.963603
                                                         1.513589      -0.631435
                                                         0.596768      -0.343022
                                                         0.222222      -0.006534
                                                         0.077078       0.007652

                          1       2    3s                7.884570      -0.009340
                                                         3.894698       0.212624
                                                         1.513589      -0.258368
                                                         0.596768      -0.226206
                                                         0.222222       0.039438
                                                         0.077078       0.107179

                          1       3    4s                7.884570       0.276563
                                                         3.894698       0.105452
                                                         1.513589       0.085149
                                                         0.596768       0.882541
                                                         0.222222      -0.696223
                                                         0.077078       0.156638

                          1       4    3px               7.884570      -2.034794
                                                         3.894698       0.782008
                                                         1.513589       1.253903
                                                         0.596768       0.347823
                                                         0.222222       0.016778
                                                         0.077078      -0.000433
                          1       4    3py               7.884570      -2.034794
                                                         3.894698       0.782008
                                                         1.513589       1.253903
                                                         0.596768       0.347823
                                                         0.222222       0.016778
                                                         0.077078      -0.000433
                          1       4    3pz               7.884570      -2.034794
                                                         3.894698       0.782008
                                                         1.513589       1.253903
                                                         0.596768       0.347823
                                                         0.222222       0.016778
                                                         0.077078      -0.000433

                          1       5    4px               7.884570       0.376572
                                                         3.894698      -0.182875
                                                         1.513589      -0.474776
                                                         0.596768      -0.081757
                                                         0.222222       0.064432
                                                         0.077078       0.047279
                          1       5    4py               7.884570       0.376572
                                                         3.894698      -0.182875
                                                         1.513589      -0.474776
                                                         0.596768      -0.081757
                                                         0.222222       0.064432
                                                         0.077078       0.047279
                          1       5    4pz               7.884570       0.376572
                                                         3.894698      -0.182875
                                                         1.513589      -0.474776
                                                         0.596768      -0.081757
                                                         0.222222       0.064432
                                                         0.077078       0.047279

                          1       6    4dx2              7.884570       3.047350
                                                         3.894698       3.289529
                                                         1.513589       1.060616
                                                         0.596768       0.249930
                                                         0.222222       0.038806
                                                         0.077078       0.002319
                          1       6    4dxy              7.884570       5.278165
                                                         3.894698       5.697631
                                                         1.513589       1.837041
                                                         0.596768       0.432892
                                                         0.222222       0.067214
                                                         0.077078       0.004017
                          1       6    4dxz              7.884570       5.278165
                                                         3.894698       5.697631
                                                         1.513589       1.837041
                                                         0.596768       0.432892
                                                         0.222222       0.067214
                                                         0.077078       0.004017
                          1       6    4dy2              7.884570       3.047350
                                                         3.894698       3.289529
                                                         1.513589       1.060616
                                                         0.596768       0.249930
                                                         0.222222       0.038806
                                                         0.077078       0.002319
                          1       6    4dyz              7.884570       5.278165
                                                         3.894698       5.697631
                                                         1.513589       1.837041
                                                         0.596768       0.432892
                                                         0.222222       0.067214
                                                         0.077078       0.004017
                          1       6    4dz2              7.884570       3.047350
                                                         3.894698       3.289529
                                                         1.513589       1.060616
                                                         0.596768       0.249930
                                                         0.222222       0.038806
                                                         0.077078       0.002319

                          1       7    5dx2              7.884570      -2.119015
                                                         3.894698      -1.237751
                                                         1.513589      -0.746777
                                                         0.596768      -0.071514
                                                         0.222222       0.004086
                                                         0.077078       0.017595
                          1       7    5dxy              7.884570      -3.670241
                                                         3.894698      -2.143848
                                                         1.513589      -1.293455
                                                         0.596768      -0.123865
                                                         0.222222       0.007077
                                                         0.077078       0.030475
                          1       7    5dxz              7.884570      -3.670241
                                                         3.894698      -2.143848
                                                         1.513589      -1.293455
                                                         0.596768      -0.123865
                                                         0.222222       0.007077
                                                         0.077078       0.030475
                          1       7    5dy2              7.884570      -2.119015
                                                         3.894698      -1.237751
                                                         1.513589      -0.746777
                                                         0.596768      -0.071514
                                                         0.222222       0.004086
                                                         0.077078       0.017595
                          1       7    5dyz              7.884570      -3.670241
                                                         3.894698      -2.143848
                                                         1.513589      -1.293455
                                                         0.596768      -0.123865
                                                         0.222222       0.007077
                                                         0.077078       0.030475
                          1       7    5dz2              7.884570      -2.119015
                                                         3.894698      -1.237751
                                                         1.513589      -0.746777
                                                         0.596768      -0.071514
                                                         0.222222       0.004086
                                                         0.077078       0.017595

                          1       8    5fx3              7.884570      -0.342058
                                                         3.894698       0.375798
                                                         1.513589      -0.706469
                                                         0.596768      -0.229994
                                                         0.222222      -0.012723
                                                         0.077078       0.003932
                          1       8    5fx2y             7.884570      -0.764866
                                                         3.894698       0.840310
                                                         1.513589      -1.579712
                                                         0.596768      -0.514282
                                                         0.222222      -0.028450
                                                         0.077078       0.008792
                          1       8    5fx2z             7.884570      -0.764866
                                                         3.894698       0.840310
                                                         1.513589      -1.579712
                                                         0.596768      -0.514282
                                                         0.222222      -0.028450
                                                         0.077078       0.008792
                          1       8    5fxy2             7.884570      -0.764866
                                                         3.894698       0.840310
                                                         1.513589      -1.579712
                                                         0.596768      -0.514282
                                                         0.222222      -0.028450
                                                         0.077078       0.008792
                          1       8    5fxyz             7.884570      -1.324787
                                                         3.894698       1.455460
                                                         1.513589      -2.736142
                                                         0.596768      -0.890763
                                                         0.222222      -0.049276
                                                         0.077078       0.015229
                          1       8    5fxz2             7.884570      -0.764866
                                                         3.894698       0.840310
                                                         1.513589      -1.579712
                                                         0.596768      -0.514282
                                                         0.222222      -0.028450
                                                         0.077078       0.008792
                          1       8    5fy3              7.884570      -0.342058
                                                         3.894698       0.375798
                                                         1.513589      -0.706469
                                                         0.596768      -0.229994
                                                         0.222222      -0.012723
                                                         0.077078       0.003932
                          1       8    5fy2z             7.884570      -0.764866
                                                         3.894698       0.840310
                                                         1.513589      -1.579712
                                                         0.596768      -0.514282
                                                         0.222222      -0.028450
                                                         0.077078       0.008792
                          1       8    5fyz2             7.884570      -0.764866
                                                         3.894698       0.840310
                                                         1.513589      -1.579712
                                                         0.596768      -0.514282
                                                         0.222222      -0.028450
                                                         0.077078       0.008792
                          1       8    5fz3              7.884570      -0.342058
                                                         3.894698       0.375798
                                                         1.513589      -0.706469
                                                         0.596768      -0.229994
                                                         0.222222      -0.012723
                                                         0.077078       0.003932

       Atomic covalent radius [Angstrom]:                                  1.320

       Atomic van der Waals radius [Angstrom]:                             1.760

     GTH Potential information for                                   GTH-PBE-q12

       Description:                       Goedecker-Teter-Hutter pseudopotential
                                           Goedecker et al., PRB 54, 1703 (1996)
                                          Hartwigsen et al., PRB 58, 3641 (1998)
                                                      Krack, TCA 114, 145 (2005)

       Gaussian exponent of the core charge distribution:               3.462604
       Electronic configuration (s p d ...):                           4   6   2

       Parameters of the local part of the GTH pseudopotential:

                          rloc        C1          C2          C3          C4
                        0.380000    8.711442   -0.700287

       Parameters of the non-local part of the GTH pseudopotential:

                   l      r(l)      h(i,j,l)

                   0    0.337771    2.575264    3.692971
                                    3.692971   -4.767605
                   1    0.242531   -4.630541    8.870875
                                    8.870875  -10.496161
                   2    0.243317   -9.406653

  2. Atomic kind: O                                     Number of atoms:     128

     Orbital Basis Set                                     DZVP-MOLOPT-SR-GTH-q6

       Number of orbital shell sets:                                           1
       Number of orbital shells:                                               5
       Number of primitive Cartesian functions:                                5
       Number of Cartesian basis functions:                                   14
       Number of spherical basis functions:                                   13
       Norm type:                                                              2

       Normalised Cartesian orbitals:

                        Set   Shell   Orbital            Exponent    Coefficient

                          1       1    2s               10.389228       0.396646
                                                         3.849621       0.208811
                                                         1.388401      -0.301641
                                                         0.496955      -0.274061
                                                         0.162492      -0.033677

                          1       2    3s               10.389228       0.303673
                                                         3.849621       0.240943
                                                         1.388401      -0.313066
                                                         0.496955      -0.043055
                                                         0.162492       0.213991

                          1       3    3px              10.389228      -1.530415
                                                         3.849621      -1.371928
                                                         1.388401      -0.761951
                                                         0.496955      -0.253695
                                                         0.162492      -0.035541
                          1       3    3py              10.389228      -1.530415
                                                         3.849621      -1.371928
                                                         1.388401      -0.761951
                                                         0.496955      -0.253695
                                                         0.162492      -0.035541
                          1       3    3pz              10.389228      -1.530415
                                                         3.849621      -1.371928
                                                         1.388401      -0.761951
                                                         0.496955      -0.253695
                                                         0.162492      -0.035541

                          1       4    4px              10.389228      -0.565392
                                                         3.849621      -0.038231
                                                         1.388401      -0.382373
                                                         0.496955       0.179070
                                                         0.162492       0.122714
                          1       4    4py              10.389228      -0.565392
                                                         3.849621      -0.038231
                                                         1.388401      -0.382373
                                                         0.496955       0.179070
                                                         0.162492       0.122714
                          1       4    4pz              10.389228      -0.565392
                                                         3.849621      -0.038231
                                                         1.388401      -0.382373
                                                         0.496955       0.179070
                                                         0.162492       0.122714

                          1       5    4dx2             10.389228       1.867377
                                                         3.849621       0.670994
                                                         1.388401       1.353441
                                                         0.496955       0.273538
                                                         0.162492       0.006620
                          1       5    4dxy             10.389228       3.234392
                                                         3.849621       1.162195
                                                         1.388401       2.344229
                                                         0.496955       0.473781
                                                         0.162492       0.011466
                          1       5    4dxz             10.389228       3.234392
                                                         3.849621       1.162195
                                                         1.388401       2.344229
                                                         0.496955       0.473781
                                                         0.162492       0.011466
                          1       5    4dy2             10.389228       1.867377
                                                         3.849621       0.670994
                                                         1.388401       1.353441
                                                         0.496955       0.273538
                                                         0.162492       0.006620
                          1       5    4dyz             10.389228       3.234392
                                                         3.849621       1.162195
                                                         1.388401       2.344229
                                                         0.496955       0.473781
                                                         0.162492       0.011466
                          1       5    4dz2             10.389228       1.867377
                                                         3.849621       0.670994
                                                         1.388401       1.353441
                                                         0.496955       0.273538
                                                         0.162492       0.006620

       Atomic covalent radius [Angstrom]:                                  0.730

       Atomic van der Waals radius [Angstrom]:                             1.520

     GTH Potential information for                                    GTH-PBE-q6

       Description:                       Goedecker-Teter-Hutter pseudopotential
                                           Goedecker et al., PRB 54, 1703 (1996)
                                          Hartwigsen et al., PRB 58, 3641 (1998)
                                                      Krack, TCA 114, 145 (2005)

       Gaussian exponent of the core charge distribution:               8.360253
       Electronic configuration (s p d ...):                               2   4

       Parameters of the local part of the GTH pseudopotential:

                          rloc        C1          C2          C3          C4
                        0.244554  -16.667215    2.487311

       Parameters of the non-local part of the GTH pseudopotential:

                   l      r(l)      h(i,j,l)

                   0    0.220956   18.337458
                   1    0.211332

     A DFT+U correction is applied to atoms of this atomic kind:
       Angular quantum momentum number L:                                      1
       U(eff) = (U - J) value in [eV]:                                     2.500


 MOLECULE KIND INFORMATION


 All atoms are their own molecule, skipping detailed information


 TOTAL NUMBERS AND MAXIMUM NUMBERS

  Total number of            - Atomic kinds:                                   2
                             - Atoms:                                        192
                             - Shell sets:                                   192
                             - Shells:                                      1152
                             - Primitive Cartesian functions:               1024
                             - Cartesian basis functions:                   3776
                             - Spherical basis functions:                   3328

  Maximum angular momentum of- Orbital basis functions:                        3
                             - Local part of the GTH pseudopotential:          2
                             - Non-local part of the GTH pseudopotential:      3


 MODULE QUICKSTEP: ATOMIC COORDINATES IN ANGSTROM

   Atom Kind Element         X             Y             Z       Z(eff)     Mass
      1    1 Ti   22      0.000807      0.000794      0.000001  12.0000  47.8670
      2    1 Ti   22      1.888394      1.888401      4.807508  12.0000  47.8670
      3    1 Ti   22      0.000795      1.888375      2.402070  12.0000  47.8670
      4    1 Ti   22      1.888389      0.000792      7.212949  12.0000  47.8670
      5    1 Ti   22      0.000811      3.776029      0.003082  12.0000  47.8670
      6    1 Ti   22      1.888408     13.237830      4.805771  12.0000  47.8670
      7    1 Ti   22     11.350295      1.888385      2.403680  12.0000  47.8670
      8    1 Ti   22      5.669404      0.000844      7.216981  12.0000  47.8670
      9    1 Ti   22      1.888420      3.776049      7.209847  12.0000  47.8670
     10    1 Ti   22      0.000811     13.237795      2.403814  12.0000  47.8670
     11    1 Ti   22      5.669432      1.888509      4.803440  12.0000  47.8670
     12    1 Ti   22     11.350278      0.000781     -0.001623  12.0000  47.8670
     13    1 Ti   22      3.776037      0.000812     -0.003071  12.0000  47.8670
     14    1 Ti   22     13.237825      1.888400      4.809246  12.0000  47.8670
     15    1 Ti   22     13.237809      0.000810      7.211226  12.0000  47.8670
     16    1 Ti   22      3.776052      1.888429      2.405172  12.0000  47.8670
     17    1 Ti   22      1.888502      5.669436      4.811573  12.0000  47.8670
     18    1 Ti   22      0.000784     11.350289      0.001612  12.0000  47.8670
     19    1 Ti   22      0.000840      5.669406      2.398029  12.0000  47.8670
     20    1 Ti   22      1.888393     11.350289      7.211336  12.0000  47.8670
     21    1 Ti   22      0.000839      7.569647      0.005671  12.0000  47.8670
     22    1 Ti   22      1.888450      9.462837      4.808825  12.0000  47.8670
     23    1 Ti   22      7.569642      1.888492      2.407770  12.0000  47.8670
     24    1 Ti   22      9.462821      0.000814      7.214253  12.0000  47.8670
     25    1 Ti   22      1.888491      7.569634      7.207249  12.0000  47.8670
     26    1 Ti   22      0.000815      9.462825      2.400773  12.0000  47.8670
     27    1 Ti   22      9.462834      1.888453      4.806194  12.0000  47.8670
     28    1 Ti   22      7.569637      0.000839     -0.005667  12.0000  47.8670
     29    1 Ti   22      3.776082      3.776087     -0.000001  12.0000  47.8670
     30    1 Ti   22     13.237822     13.237830      4.807521  12.0000  47.8670
     31    1 Ti   22     11.350193      5.669425      2.399613  12.0000  47.8670
     32    1 Ti   22      5.669430     11.350184      7.215402  12.0000  47.8670
     33    1 Ti   22     13.237794      3.776046      7.208148  12.0000  47.8670
     34    1 Ti   22      3.776053     13.237789      2.406880  12.0000  47.8670
     35    1 Ti   22      5.669457      5.669466      4.807506  12.0000  47.8670
     36    1 Ti   22     11.350285     11.350289     -0.000001  12.0000  47.8670
     37    1 Ti   22     11.350298     13.237818      2.405423  12.0000  47.8670
     38    1 Ti   22      5.669442      3.776168      7.213961  12.0000  47.8670
     39    1 Ti   22      3.776040     11.350252     -0.001485  12.0000  47.8670
     40    1 Ti   22     13.237781      5.669417      4.813276  12.0000  47.8670
     41    1 Ti   22      5.669427     13.237786      4.801747  12.0000  47.8670
     42    1 Ti   22     11.350245      3.776035      0.001484  12.0000  47.8670
     43    1 Ti   22     13.237823     11.350281      7.209601  12.0000  47.8670
     44    1 Ti   22      3.776164      5.669446      2.401058  12.0000  47.8670
     45    1 Ti   22      3.776155      7.569609      0.002644  12.0000  47.8670
     46    1 Ti   22     13.237820      9.462845      4.810538  12.0000  47.8670
     47    1 Ti   22      7.569609      5.669450      2.403694  12.0000  47.8670
     48    1 Ti   22      9.462826     11.350250      7.212652  12.0000  47.8670
     49    1 Ti   22     13.237779      7.569648      7.205553  12.0000  47.8670
     50    1 Ti   22      3.776091      9.462774      2.403850  12.0000  47.8670
     51    1 Ti   22      9.462709      5.669469      4.810303  12.0000  47.8670
     52    1 Ti   22      7.569631     11.350200     -0.004083  12.0000  47.8670
     53    1 Ti   22     11.350256      9.462819      2.402358  12.0000  47.8670
     54    1 Ti   22      5.669447      7.569603      7.211313  12.0000  47.8670
     55    1 Ti   22      5.669473      9.462720      4.804706  12.0000  47.8670
     56    1 Ti   22     11.350193      7.569629      0.004076  12.0000  47.8670
     57    1 Ti   22      9.462774      3.776091      7.211167  12.0000  47.8670
     58    1 Ti   22      7.569658     13.237777      2.409469  12.0000  47.8670
     59    1 Ti   22      7.569601      3.776154     -0.002648  12.0000  47.8670
     60    1 Ti   22      9.462845     13.237830      4.804485  12.0000  47.8670
     61    1 Ti   22      7.569601      7.569606     -0.000002  12.0000  47.8670
     62    1 Ti   22      9.462811      9.462808      4.807508  12.0000  47.8670
     63    1 Ti   22      7.569617      9.462706      2.406487  12.0000  47.8670
     64    1 Ti   22      9.462704      7.569612      7.208528  12.0000  47.8670
     65    2 O     8      0.000899      0.001588      1.992323   6.0000  15.9994
     66    2 O     8      1.884833      1.887548      6.800201   6.0000  15.9994
     67    2 O     8      0.001579      1.884799      4.396499   6.0000  15.9994
     68    2 O     8      1.887568      0.000892      9.203533   6.0000  15.9994
     69    2 O     8      1.884800      0.001578      5.218522   6.0000  15.9994
     70    2 O     8      0.000892      1.887567      0.411489   6.0000  15.9994
     71    2 O     8      1.887548      1.884835      2.814817   6.0000  15.9994
     72    2 O     8      0.001592      0.000897      7.622695   6.0000  15.9994
     73    2 O     8      0.000928      3.775984      1.990373   6.0000  15.9994
     74    2 O     8      1.884800     13.236997      6.800250   6.0000  15.9994
     75    2 O     8     11.351137      1.884829      4.396506   6.0000  15.9994
     76    2 O     8      5.672141      0.000875      9.204827   6.0000  15.9994
     77    2 O     8      1.884949      3.775953      5.220443   6.0000  15.9994
     78    2 O     8      0.000897     13.236986      0.411434   6.0000  15.9994
     79    2 O     8      5.672122      1.884948      2.813589   6.0000  15.9994
     80    2 O     8     11.351118      0.000891      7.622694   6.0000  15.9994
     81    2 O     8      3.775986      0.000928      7.624642   6.0000  15.9994
     82    2 O     8     13.236997      1.884801      2.814769   6.0000  15.9994
     83    2 O     8     13.236988      0.000897      9.203583   6.0000  15.9994
     84    2 O     8      3.775957      1.884951      4.394572   6.0000  15.9994
     85    2 O     8      1.884944      5.672108      6.801432   6.0000  15.9994
     86    2 O     8      0.000889     11.351120      1.992327   6.0000  15.9994
     87    2 O     8      0.000873      5.672147      0.410195   6.0000  15.9994
     88    2 O     8      1.884831     11.351135      5.218514   6.0000  15.9994
     89    2 O     8      0.000872      7.566957      1.993570   6.0000  15.9994
     90    2 O     8      1.884947      9.462865      6.798394   6.0000  15.9994
     91    2 O     8      7.566986      1.884944      4.397687   6.0000  15.9994
     92    2 O     8      9.462839      0.000927      9.201703   6.0000  15.9994
     93    2 O     8      1.884943      7.566981      5.217337   6.0000  15.9994
     94    2 O     8      0.000929      9.462835      0.413320   6.0000  15.9994
     95    2 O     8      9.462863      1.884950      2.816627   6.0000  15.9994
     96    2 O     8      7.566959      0.000874      7.621454   6.0000  15.9994
     97    2 O     8      3.769749      0.001582      1.992733   6.0000  15.9994
     98    2 O     8     13.237589      1.887566      6.799770   6.0000  15.9994
     99    2 O     8      0.001606      5.655961      4.396039   6.0000  15.9994
    100    2 O     8      1.887547     11.353724      9.203959   6.0000  15.9994
    101    2 O     8     13.237585      0.001592      5.218943   6.0000  15.9994
    102    2 O     8      3.769851      1.887592      0.411102   6.0000  15.9994
    103    2 O     8      1.887729      5.656225      2.815292   6.0000  15.9994
    104    2 O     8      0.001578     11.353756      7.622275   6.0000  15.9994
    105    2 O     8     11.353724      1.887548      0.411058   6.0000  15.9994
    106    2 O     8      5.655953      0.001607      5.218978   6.0000  15.9994
    107    2 O     8      5.656233      1.887727      6.799724   6.0000  15.9994
    108    2 O     8     11.353754      0.001578      1.992743   6.0000  15.9994
    109    2 O     8      1.887591      3.769852      9.203918   6.0000  15.9994
    110    2 O     8      0.001592     13.237584      4.396074   6.0000  15.9994
    111    2 O     8      0.001583      3.769748      7.622284   6.0000  15.9994
    112    2 O     8      1.887567     13.237588      2.815248   6.0000  15.9994
    113    2 O     8      3.770032      3.775991      1.990851   6.0000  15.9994
    114    2 O     8     13.237584     13.236991      6.799824   6.0000  15.9994
    115    2 O     8     11.350957      5.656194      4.396028   6.0000  15.9994
    116    2 O     8      5.672112     11.353616      9.205187   6.0000  15.9994
    117    2 O     8     13.237554      3.775987      5.220896   6.0000  15.9994
    118    2 O     8      3.769749     13.236992      0.411020   6.0000  15.9994
    119    2 O     8      5.672164      5.656731      2.813752   6.0000  15.9994
    120    2 O     8     11.351137     11.353727      7.622267   6.0000  15.9994
    121    2 O     8     11.353759     13.236995      0.411012   6.0000  15.9994
    122    2 O     8      5.656464      3.776132      5.220714   6.0000  15.9994
    123    2 O     8      3.775958     11.353610      7.624192   6.0000  15.9994
    124    2 O     8     13.236972      5.655978      2.815226   6.0000  15.9994
    125    2 O     8      5.655989     13.236975      6.799787   6.0000  15.9994
    126    2 O     8     11.353611      3.775952      1.990826   6.0000  15.9994
    127    2 O     8     13.236997     11.353757      9.204009   6.0000  15.9994
    128    2 O     8      3.776126      5.656470      4.394304   6.0000  15.9994
    129    2 O     8      5.656733      5.672171      6.801272   6.0000  15.9994
    130    2 O     8     11.353728     11.351139      1.992754   6.0000  15.9994
    131    2 O     8     13.236994      3.769746      9.203999   6.0000  15.9994
    132    2 O     8      3.775984     13.237557      4.394120   6.0000  15.9994
    133    2 O     8     11.353617      5.672112      0.409833   6.0000  15.9994
    134    2 O     8      5.656180     11.350958      5.218989   6.0000  15.9994
    135    2 O     8      3.776000      3.770033      7.624174   6.0000  15.9994
    136    2 O     8     13.236987     13.237583      2.815195   6.0000  15.9994
    137    2 O     8     13.237591     11.351117      5.218945   6.0000  15.9994
    138    2 O     8      3.770077      5.672092      0.409814   6.0000  15.9994
    139    2 O     8      5.672152     13.237606      2.813950   6.0000  15.9994
    140    2 O     8     11.351092      3.769844      7.622311   6.0000  15.9994
    141    2 O     8      3.769843     11.351097      1.992710   6.0000  15.9994
    142    2 O     8     13.237609      5.672141      6.801071   6.0000  15.9994
    143    2 O     8     11.351121     13.237590      4.396082   6.0000  15.9994
    144    2 O     8      5.672103      3.770077      9.205207   6.0000  15.9994
    145    2 O     8      3.770073      7.566999      1.993946   6.0000  15.9994
    146    2 O     8     13.237554      9.462838      6.797942   6.0000  15.9994
    147    2 O     8      7.566931      5.656701      4.397522   6.0000  15.9994
    148    2 O     8      9.462863     11.353618      9.202152   6.0000  15.9994
    149    2 O     8     13.237610      7.566953      5.217700   6.0000  15.9994
    150    2 O     8      3.770023      9.462824      0.412849   6.0000  15.9994
    151    2 O     8      9.462687      5.656474      2.816909   6.0000  15.9994
    152    2 O     8      7.566982     11.353619      7.621090   6.0000  15.9994
    153    2 O     8     11.353617      9.462866      0.412869   6.0000  15.9994
    154    2 O     8      5.656695      7.566920      5.217496   6.0000  15.9994
    155    2 O     8      5.656482      9.462685      6.798106   6.0000  15.9994
    156    2 O     8     11.353619      7.566986      1.993930   6.0000  15.9994
    157    2 O     8      9.462821      3.770024      9.202169   6.0000  15.9994
    158    2 O     8      7.566951     13.237611      4.397326   6.0000  15.9994
    159    2 O     8      7.566997      3.770078      7.621071   6.0000  15.9994
    160    2 O     8      9.462838     13.237554      2.817085   6.0000  15.9994
    161    2 O     8      7.582823      0.001603      1.992321   6.0000  15.9994
    162    2 O     8      9.468716      1.887590      6.800142   6.0000  15.9994
    163    2 O     8      0.001581      9.468812      4.396469   6.0000  15.9994
    164    2 O     8      1.887716      7.582590      9.203518   6.0000  15.9994
    165    2 O     8      9.468814      0.001583      5.218551   6.0000  15.9994
    166    2 O     8      7.582593      1.887715      0.411500   6.0000  15.9994
    167    2 O     8      1.887586      9.468714      2.814878   6.0000  15.9994
    168    2 O     8      0.001604      7.582822      7.622696   6.0000  15.9994
    169    2 O     8      7.582330      3.776117      1.990573   6.0000  15.9994
    170    2 O     8      9.468813     13.236996      6.800221   6.0000  15.9994
    171    2 O     8     11.351092      9.468724      4.396446   6.0000  15.9994
    172    2 O     8      5.672153      7.582108      9.205022   6.0000  15.9994
    173    2 O     8      9.468544      3.775991      5.220443   6.0000  15.9994
    174    2 O     8      7.582821     13.236976      0.411434   6.0000  15.9994
    175    2 O     8      5.672088      9.468507      2.813586   6.0000  15.9994
    176    2 O     8     11.350972      7.582606      7.622710   6.0000  15.9994
    177    2 O     8      3.776114      7.582331      7.624442   6.0000  15.9994
    178    2 O     8     13.236992      9.468813      2.814798   6.0000  15.9994
    179    2 O     8     13.236975      7.582822      9.203585   6.0000  15.9994
    180    2 O     8      3.775986      9.468540      4.394575   6.0000  15.9994
    181    2 O     8      9.468507      5.672099      6.801426   6.0000  15.9994
    182    2 O     8      7.582608     11.350974      1.992309   6.0000  15.9994
    183    2 O     8      7.582108      5.672165      0.409997   6.0000  15.9994
    184    2 O     8      9.468724     11.351093      5.218575   6.0000  15.9994
    185    2 O     8      7.582114      7.566941      1.993767   6.0000  15.9994
    186    2 O     8      9.468552      9.462832      6.798393   6.0000  15.9994
    187    2 O     8      7.566980      9.468512      4.397679   6.0000  15.9994
    188    2 O     8      9.462706      7.582347      9.201886   6.0000  15.9994
    189    2 O     8      9.468509      7.567006      5.217339   6.0000  15.9994
    190    2 O     8      7.582343      9.462703      0.413135   6.0000  15.9994
    191    2 O     8      9.462824      9.468552      2.816631   6.0000  15.9994
    192    2 O     8      7.566943      7.582115      7.621257   6.0000  15.9994



 SCF PARAMETERS         Density guess:                                   RESTART
                        --------------------------------------------------------
                        max_scf:                                              40
                        max_scf_history:                                       0
                        max_diis:                                              4
                        --------------------------------------------------------
                        eps_scf:                                        1.00E-06
                        eps_scf_history:                                0.00E+00
                        eps_diis:                                       1.00E-01
                        eps_eigval:                                     1.00E-05
                        --------------------------------------------------------
                        level_shift [a.u.]:                             0.000000
                        --------------------------------------------------------
                        Outer loop SCF in use 
                        No variables optimised in outer loop
                        eps_scf                                         1.00E-06
                        max_scf                                               60
                        No outer loop optimization
                        step_size                                       5.00E-01

 PW_GRID| Information for grid number                                          1
 PW_GRID| Grid distributed over                                   128 processors
 PW_GRID| Real space group dimensions                                   128    1
 PW_GRID| the grid is blocked:                                                NO
 PW_GRID| Cutoff [a.u.]                                                    300.0
 PW_GRID| spherical cutoff:                                                   NO
 PW_GRID|   Bounds   1           -112     112                Points:         225
 PW_GRID|   Bounds   2           -112     112                Points:         225
 PW_GRID|   Bounds   3            -72      71                Points:         144
 PW_GRID| Volume element (a.u.^3)  0.2035E-02     Volume (a.u.^3)     14833.7304
 PW_GRID| Grid span                                                    FULLSPACE
 PW_GRID|   Distribution                         Average         Max         Min
 PW_GRID|   G-Vectors                            56953.1       57150       56925
 PW_GRID|   G-Rays                                 253.1         254         253
 PW_GRID|   Real Space Points                    56953.1       64800       32400

 PW_GRID| Information for grid number                                          2
 PW_GRID| Number of the reference grid                                         1
 PW_GRID| Grid distributed over                                   128 processors
 PW_GRID| Real space group dimensions                                   128    1
 PW_GRID| the grid is blocked:                                                NO
 PW_GRID| Cutoff [a.u.]                                                    100.0
 PW_GRID| spherical cutoff:                                                   NO
 PW_GRID|   Bounds   1            -67      67                Points:         135
 PW_GRID|   Bounds   2            -67      67                Points:         135
 PW_GRID|   Bounds   3            -40      40                Points:          81
 PW_GRID| Volume element (a.u.^3)  0.1005E-01     Volume (a.u.^3)     14833.7304
 PW_GRID| Grid span                                                    FULLSPACE
 PW_GRID|   Distribution                         Average         Max         Min
 PW_GRID|   G-Vectors                            11533.0       12150       10800
 PW_GRID|   G-Rays                                  85.4          90          80
 PW_GRID|   Real Space Points                    11533.0       21870       10935

 PW_GRID| Information for grid number                                          3
 PW_GRID| Number of the reference grid                                         1
 PW_GRID| Grid distributed over                                   128 processors
 PW_GRID| Real space group dimensions                                     8   16
 PW_GRID| the grid is blocked:                                                NO
 PW_GRID| Cutoff [a.u.]                                                     33.3
 PW_GRID| spherical cutoff:                                                   NO
 PW_GRID|   Bounds   1            -37      37                Points:          75
 PW_GRID|   Bounds   2            -37      37                Points:          75
 PW_GRID|   Bounds   3            -24      23                Points:          48
 PW_GRID| Volume element (a.u.^3)  0.5494E-01     Volume (a.u.^3)     14833.7304
 PW_GRID| Grid span                                                    FULLSPACE
 PW_GRID|   Distribution                         Average         Max         Min
 PW_GRID|   G-Vectors                             2109.4        2475        1725
 PW_GRID|   G-Rays                                  28.1          33          23
 PW_GRID|   Real Space Points                     2109.4        2400        1728

 PW_GRID| Information for grid number                                          4
 PW_GRID| Number of the reference grid                                         1
 PW_GRID| Grid distributed over                                   128 processors
 PW_GRID| Real space group dimensions                                     8   16
 PW_GRID| the grid is blocked:                                                NO
 PW_GRID| Cutoff [a.u.]                                                     11.1
 PW_GRID| spherical cutoff:                                                   NO
 PW_GRID|   Bounds   1            -22      22                Points:          45
 PW_GRID|   Bounds   2            -22      22                Points:          45
 PW_GRID|   Bounds   3            -13      13                Points:          27
 PW_GRID| Volume element (a.u.^3)  0.2713         Volume (a.u.^3)     14833.7304
 PW_GRID| Grid span                                                    FULLSPACE
 PW_GRID|   Distribution                         Average         Max         Min
 PW_GRID|   G-Vectors                              427.1         585         270
 PW_GRID|   G-Rays                                   9.5          13           6
 PW_GRID|   Real Space Points                      427.1         486         270

 POISSON| Solver                                                        PERIODIC
 POISSON| Periodicity                                                        XYZ

 RS_GRID| Information for grid number                                          1
 RS_GRID|   Bounds   1           -112     112                Points:         225
 RS_GRID|   Bounds   2           -112     112                Points:         225
 RS_GRID|   Bounds   3            -72      71                Points:         144
 RS_GRID| Real space distribution over                                  8 groups
 RS_GRID| Real space distribution along direction                              1
 RS_GRID| Border size                                                         26
 RS_GRID| Real space distribution over                                 16 groups
 RS_GRID| Real space distribution along direction                              2
 RS_GRID| Border size                                                         26
 RS_GRID|   Distribution                         Average         Max         Min
 RS_GRID|   Planes                                  80.1          81          80
 RS_GRID|   Distribution                         Average         Max         Min
 RS_GRID|   Planes                                  66.1          67          66

 RS_GRID| Information for grid number                                          2
 RS_GRID|   Bounds   1            -67      67                Points:         135
 RS_GRID|   Bounds   2            -67      67                Points:         135
 RS_GRID|   Bounds   3            -40      40                Points:          81
 RS_GRID| Real space distribution over                                  8 groups
 RS_GRID| Real space distribution along direction                              1
 RS_GRID| Border size                                                         24
 RS_GRID| Real space distribution over                                 16 groups
 RS_GRID| Real space distribution along direction                              2
 RS_GRID| Border size                                                         24
 RS_GRID|   Distribution                         Average         Max         Min
 RS_GRID|   Planes                                  64.9          65          64
 RS_GRID|   Distribution                         Average         Max         Min
 RS_GRID|   Planes                                  56.4          57          56

 RS_GRID| Information for grid number                                          3
 RS_GRID|   Bounds   1            -37      37                Points:          75
 RS_GRID|   Bounds   2            -37      37                Points:          75
 RS_GRID|   Bounds   3            -24      23                Points:          48
 RS_GRID| Real space fully replicated
 RS_GRID| Group size                                                           1

 RS_GRID| Information for grid number                                          4
 RS_GRID|   Bounds   1            -22      22                Points:          45
 RS_GRID|   Bounds   2            -22      22                Points:          45
 RS_GRID|   Bounds   3            -13      13                Points:          27
 RS_GRID| Real space fully replicated
 RS_GRID| Group size                                                           1

 BFGS| Use rational function optimization for step estimation:                NO
 BFGS| Use model Hessian for initial guess:                                  YES
 BFGS| Restart Hessian:                                                       NO
 BFGS| Trust radius:                                                       0.472

 *******************************************************************************
 ***                     STARTING GEOMETRY OPTIMIZATION                      ***
 ***                                   BFGS                                  ***
 *******************************************************************************

 Spin 1

 Number of electrons:                                                        768
 Number of occupied orbitals:                                                768
 Number of molecular orbitals:                                               768

 Spin 2

 Number of electrons:                                                        767
 Number of occupied orbitals:                                                767
 Number of molecular orbitals:                                               767

 Number of orbital functions:                                               3328
 Number of independent orbital functions:                                   3328

 Extrapolation method: initial_guess

 *** WARNING in qs_initial_guess.F:306 :: User requested to restart the    ***
 *** wavefunction from the file named: tio2-RESTART.wfn. This file does    ***
 *** not exist. Please check the existence of the file or change properly  ***
 *** the value of the keyword WFN_RESTART_FILE_NAME. Calculation continues ***
 *** using ATOMIC GUESS.                                                   ***


 Atomic guess: The first density matrix is obtained in terms of atomic orbitals
               and electronic configurations assigned to each atomic kind

 Guess for atomic kind: Ti

 Electronic structure
    Total number of core electrons                                         10.00
    Total number of valence electrons                                      12.00
    Total number of electrons                                              22.00
    Multiplicity                                                   not specified
    S   [  2.00  2.00] 2.00  2.00
    P   [  6.00] 6.00
    D      2.00


 *******************************************************************************
                  Iteration          Convergence                     Energy [au]
 *******************************************************************************
                          1         2.59099                     -56.573945749309
                          2        0.737518                     -57.461623245624
                          3        0.123244E-01                 -57.676656834797
                          4        0.338536E-02                 -57.676690535970
                          5        0.252157E-03                 -57.676697146183
                          6        0.162704E-05                 -57.676697160103
                          7        0.846593E-06                 -57.676697160104

 Energy components [Hartree]           Total Energy ::          -57.676697160104
                                        Band Energy ::          -13.440549799540
                                     Kinetic Energy ::           25.008468428381
                                   Potential Energy ::          -82.685165588485
                                      Virial (-V/T) ::            3.306286661467
                                        Core Energy ::          -97.155838374470
                                          XC Energy ::           -6.919409696495
                                     Coulomb Energy ::           46.398550910862
                       Total Pseudopotential Energy ::         -122.259340742080
                       Local Pseudopotential Energy ::         -118.928992669456
                    Nonlocal Pseudopotential Energy ::           -3.330348072625
                                        Confinement ::            0.950339392289

 Orbital energies  State     L     Occupation   Energy[a.u.]          Energy[eV]

                       1     0          2.000      -2.312566          -62.928123
                       2     0          2.000      -0.123060           -3.348633

                       1     1          6.000      -1.385567          -37.703193

                       1     2          2.000      -0.127948           -3.481643


 Total Electron Density at R=0:                                         0.004726

 Guess for atomic kind: O

 Electronic structure
    Total number of core electrons                                          2.00
    Total number of valence electrons                                       6.00
    Total number of electrons                                               8.00
    Multiplicity                                                   not specified
    S   [  2.00] 2.00
    P      4.00


 *******************************************************************************
                  Iteration          Convergence                     Energy [au]
 *******************************************************************************
                          1        0.702811                     -15.577904332270
                          2        0.612408                     -15.588447180504
                          3        0.955344E-02                 -15.655871208406
                          4        0.223754E-02                 -15.655885053552
                          5        0.157183E-02                 -15.655885461027
                          6        0.124953E-02                 -15.655885607150
                          7        0.312011E-06                 -15.655885858066

 Energy components [Hartree]           Total Energy ::          -15.655885858066
                                        Band Energy ::           -2.983128125584
                                     Kinetic Energy ::           11.754765134683
                                   Potential Energy ::          -27.410650992749
                                      Virial (-V/T) ::            2.331875684345
                                        Core Energy ::          -26.153522949072
                                          XC Energy ::           -3.157392363346
                                     Coulomb Energy ::           13.655029454351
                       Total Pseudopotential Energy ::          -37.943026860963
                       Local Pseudopotential Energy ::          -39.220419683052
                    Nonlocal Pseudopotential Energy ::            1.277392822089
                                        Confinement ::            0.347387772086

 Orbital energies  State     L     Occupation   Energy[a.u.]          Energy[eV]

                       1     0          2.000      -0.861522          -23.443215

                       1     1          4.000      -0.315021           -8.572154


 Total Electron Density at R=0:                                         0.000093

 Spin 1
 Re-scaling the density matrix to get the right number of electrons for spin 1
                  # Electrons              Trace(P)               Scaling factor
                          768               768.001                        1.000

 Spin 2
 Re-scaling the density matrix to get the right number of electrons for spin 2
                  # Electrons              Trace(P)               Scaling factor
                          767               768.001                        0.999


 SCF WAVEFUNCTION OPTIMIZATION

  ----------------------------------- OT ---------------------------------------
  Minimizer      : DIIS                : direct inversion
                                         in the iterative subspace
                                         using   7 DIIS vectors
                                         safer DIIS on
  Preconditioner : FULL_SINGLE_INVERSE : inversion of 
                                         H + eS - 2*(Sc)(c^T*H*c+const)(Sc)^T
  Precond_solver : DEFAULT
  stepsize       :    0.08000000                  energy_gap     :    0.08000000
  eps_taylor     :   0.10000E-15                  max_taylor     :             4
  ----------------------------------- OT ---------------------------------------

  Step     Update method      Time    Convergence         Total energy    Change
  ------------------------------------------------------------------------------
     1 OT DIIS     0.80E-01    2.0     0.01006004     -5658.4312832212 -5.66E+03
     2 OT DIIS     0.80E-01    1.5     0.00726099     -5693.4905046117 -3.51E+01
     3 OT DIIS     0.80E-01    1.6     0.00457994     -5726.5118237266 -3.30E+01
     4 OT DIIS     0.80E-01    1.5     0.00365020     -5736.6716115043 -1.02E+01
     5 OT DIIS     0.80E-01    1.5     0.00267075     -5748.1361721893 -1.15E+01
     6 OT DIIS     0.80E-01    1.5     0.00220140     -5755.0561921941 -6.92E+00
     7 OT DIIS     0.80E-01    1.5     0.00184193     -5761.2481979924 -6.19E+00
     8 OT DIIS     0.80E-01    1.5     0.00147529     -5767.2018418678 -5.95E+00
     9 OT DIIS     0.80E-01    1.5     0.00127850     -5770.8141625488 -3.61E+00
    10 OT DIIS     0.80E-01    1.5     0.00099679     -5774.0959387556 -3.28E+00
    11 OT DIIS     0.80E-01    1.5     0.00090973     -5774.9122525182 -8.16E-01
    12 OT DIIS     0.80E-01    1.5     0.00073610     -5776.7321330631 -1.82E+00
    13 OT DIIS     0.80E-01    1.5     0.00060562     -5778.0700379318 -1.34E+00
    14 OT DIIS     0.80E-01    1.5     0.00050162     -5779.0054958405 -9.35E-01
    15 OT DIIS     0.80E-01    1.6     0.00045274     -5779.4891496957 -4.84E-01
    16 OT DIIS     0.80E-01    1.5     0.00038213     -5780.0204710865 -5.31E-01
    17 OT DIIS     0.80E-01    1.5     0.00035568     -5780.2351433148 -2.15E-01
    18 OT DIIS     0.80E-01    1.5     0.00030832     -5780.5664876191 -3.31E-01
    19 OT DIIS     0.80E-01    1.5     0.00027002     -5780.7904899430 -2.24E-01
    20 OT DIIS     0.80E-01    1.5     0.00025633     -5780.9010220008 -1.11E-01
    21 OT DIIS     0.80E-01    1.5     0.00023706     -5781.0813520150 -1.80E-01
    22 OT DIIS     0.80E-01    1.5     0.00022071     -5781.1869511267 -1.06E-01
    23 OT DIIS     0.80E-01    1.5     0.00019709     -5781.3584224858 -1.71E-01
    24 OT DIIS     0.80E-01    1.5     0.00017525     -5781.4663532131 -1.08E-01
    25 OT DIIS     0.80E-01    1.5     0.00017733     -5781.4919298858 -2.56E-02
    26 OT DIIS     0.80E-01    1.5     0.00014513     -5781.6089729388 -1.17E-01
    27 OT DIIS     0.80E-01    1.6     0.00014246     -5781.6447595731 -3.58E-02
    28 OT DIIS     0.80E-01    1.5     0.00013422     -5781.6841512802 -3.94E-02
    29 OT SD       0.80E-01    1.5     0.00013129     -5781.7266477352 -4.25E-02
    30 OT DIIS     0.80E-01    1.5     0.00012658     -5781.7335529132 -6.91E-03
    31 OT DIIS     0.80E-01    1.5     0.00012138     -5781.7798861707 -4.63E-02
    32 OT DIIS     0.80E-01    1.5     0.00010778     -5781.8150183999 -3.51E-02
    33 OT DIIS     0.80E-01    1.5     0.00009696     -5781.8514430272 -3.64E-02
    34 OT DIIS     0.80E-01    1.5     0.00009003     -5781.8827929020 -3.13E-02
    35 OT DIIS     0.80E-01    1.5     0.00008530     -5781.9020428460 -1.92E-02
    36 OT DIIS     0.80E-01    1.5     0.00007972     -5781.9180633384 -1.60E-02
    37 OT DIIS     0.80E-01    1.5     0.00007808     -5781.9333945267 -1.53E-02
    38 OT DIIS     0.80E-01    1.5     0.00007606     -5781.9381123850 -4.72E-03
    39 OT DIIS     0.80E-01    1.5     0.00007358     -5781.9508053150 -1.27E-02
    40 OT DIIS     0.80E-01    1.5     0.00006913     -5781.9723622575 -2.16E-02

  Leaving inner SCF loop after reaching    40 steps.


  Electronic density on regular grids:      -1534.9999999999        0.0000000001
  Core density on regular grids:             1535.9999999995       -0.0000000005
  Total charge density on r-space grids:        0.9999999996
  Total charge density g-space grids:           0.9999999996

  Overlap energy of the core charge distribution:               0.00000000000327
  Self energy of the core charge distribution:             -12156.89556134359555
  Core Hamiltonian energy:                                   3261.68147152814618
  Hartree energy:                                            4028.73192557420361
  Exchange-correlation energy:                               -922.51193539171231

  DFT+U energy:                                                 7.02173737549217

  Total energy:                                             -5781.97236225746292

  outer SCF iter =    1 RMS gradient =   0.69E-04 energy =      -5781.9723622575

  ----------------------------------- OT ---------------------------------------
[...]
       0.15543262      0.15742985      0.15758627      0.15761663
       0.15775581      0.16019909      0.16033483      0.16062433
       0.16070190      0.16102807      0.16117074      0.16153909
       0.16171713      0.16200597      0.16212084      0.16261006
       0.16261882      0.16266971      0.16276739      0.16281710
       0.16287589      0.16300552      0.16421848      0.16423480
       0.16797794      0.16799980      0.16807221      0.16811832
       0.16941808      0.16942621      0.16983560      0.16985358
       0.16991061      0.16992260      0.16996331      0.16997018
       0.17021202      0.17030414      0.17032101      0.17041948
       0.17152192      0.17221323      0.17231275      0.17275958
       0.17472929      0.17487537      0.17490508      0.17496788
       0.17502450      0.17505968      0.17509645      0.17517000
       0.17594583      0.17597245      0.17642506      0.17651269
       0.17656469      0.17663240      0.17840628      0.17852830
       0.17857236      0.17870650      0.18248274      0.18271677
       0.18283383      0.18308926      0.18414561      0.18426430
       0.18434799      0.18437342      0.18445880      0.18457076
       0.18463945      0.18475098      0.18671599      0.18812716
       0.18814721      0.19113473      0.19147915      0.19173979
 Fermi Energy [eV] :    5.217505
  
  Eigenvalues of the occupied subspace spin            2
 ---------------------------------------------
      -1.93274182     -1.93237132     -1.93230685     -1.93199260
      -1.93195331     -1.93190885     -1.93185639     -1.93177339
      -1.93159445     -1.93157595     -1.93152788     -1.93149651
      -1.93145674     -1.93137830     -1.93135208     -1.93130983
      -1.93125041     -1.93120517     -1.93113977     -1.93111183
      -1.93108040     -1.93106394     -1.93102564     -1.93099858
      -1.93097581     -1.93091485     -1.93089327     -1.93088722
      -1.93080442     -1.93078504     -1.93077119     -1.93075468
      -1.93070570     -1.93068717     -1.93066719     -1.93063053
      -1.93055848     -1.93052292     -1.93049941     -1.93048098
      -1.93046173     -1.93041141     -1.93040300     -1.93037539
      -1.93031216     -1.93027031     -1.93025115     -1.93023647
      -1.93018052     -1.93015947     -1.93011037     -1.93007809
      -1.93004001     -1.92998475     -1.92995798     -1.92989667
      -1.92987042     -1.92983224     -1.92970417     -1.92965069
      -1.92961643     -1.92952541     -1.92939300     -1.92924013
      -1.01156616     -1.01116952     -1.01113781     -1.01087029
      -1.01080892     -1.01077547     -1.01055626     -1.01051525
      -1.01039723     -1.01037464     -1.01030240     -1.01022279
      -1.01019843     -1.01007992     -1.01000314     -1.00992524
      -1.00988552     -1.00986226     -1.00981662     -1.00967901
      -1.00964321     -1.00939396     -1.00936850     -1.00928078
      -1.00902732     -1.00787781     -1.00783154     -1.00780438
      -1.00774182     -1.00770593     -1.00766267     -1.00763580
      -1.00758315     -1.00751449     -1.00742656     -1.00741697
      -1.00732715     -1.00728816     -1.00723015     -1.00719580
      -1.00714544     -1.00710674     -1.00706268     -1.00704748
      -1.00700977     -1.00655541     -1.00649880     -1.00629823
      -1.00627918     -1.00569307     -1.00566219     -1.00564541
      -1.00557672     -1.00530888     -1.00530286     -1.00524503
      -1.00523968     -1.00474311     -1.00472221     -1.00469161
      -1.00461353     -1.00459567     -1.00455416     -1.00448314
      -1.00438731     -1.00422248     -1.00414584     -1.00412745
      -1.00412343     -1.00409213     -1.00402954     -1.00400553
      -1.00398844     -1.00390423     -1.00384297     -1.00381564
      -1.00377871     -1.00361145     -1.00355962     -1.00352377
      -1.00350110     -1.00347436     -1.00343787     -1.00339809
      -1.00338642     -1.00334441     -1.00330520     -1.00327583
      -1.00324266     -1.00320044     -1.00316656     -1.00314679
      -1.00307364     -1.00302465     -1.00302056     -1.00299650
      -1.00295171     -1.00293796     -1.00288716     -1.00285199
      -1.00282544     -1.00280842     -1.00278213     -1.00275259
      -1.00268679     -1.00265170     -1.00259641     -1.00250177
      -1.00245148     -1.00240985     -1.00236177     -1.00231926
      -1.00228829     -1.00225091     -1.00222604     -1.00206415
      -1.00202561     -1.00200883     -1.00196878     -1.00195748
      -1.00191475     -1.00183752     -1.00181833     -1.00125195
      -1.00123321     -1.00118359     -1.00098786     -1.00055676
      -1.00048539     -1.00045597     -1.00022500     -1.00021834
      -1.00018403     -1.00013021     -1.00002412     -0.99998309
      -0.99989215     -0.99981631     -0.99978790     -0.99971658
      -0.99970023     -0.99966817     -0.99962949     -0.99957858
      -0.99955540     -0.99952375     -0.99950779     -0.99945194
      -0.99942608     -0.99936306     -0.99934015     -0.99931217
      -0.99928672     -0.99925760     -0.99924606     -0.99914426
      -0.99909243     -0.99906185     -0.99904457     -0.99893631
      -0.99892390     -0.99886214     -0.99880349     -0.99879390
      -0.99877216     -0.99870265     -0.99869615     -0.99867525
      -0.99865943     -0.99862217     -0.99856394     -0.99830544
      -0.99829342     -0.99823163     -0.99818064     -0.99791004
      -0.99788543     -0.99779706     -0.99776400     -0.99773800
      -0.99770149     -0.99767670     -0.99760481     -0.99753305
      -0.99732638     -0.99726019     -0.99711363     -0.99702008
      -0.99691361     -0.99675712     -0.99667490     -0.99656674
      -0.43620234     -0.42711216     -0.42709011     -0.42707361
      -0.42685885     -0.41646328     -0.41635266     -0.41633455
      -0.41625799     -0.41618957     -0.41609185     -0.41581526
      -0.41558865     -0.41537678     -0.41506336     -0.41395557
      -0.41393782     -0.41392941     -0.41388901     -0.40344600
      -0.40335233     -0.40332128     -0.40321025     -0.40305832
      -0.40296858     -0.40287950     -0.40278393     -0.40163260
      -0.40158360     -0.40152149     -0.40148260     -0.40059617
      -0.40053665     -0.40050936     -0.40043039     -0.40041374
      -0.40039838     -0.40037116     -0.40027766     -0.39735241
      -0.39415321     -0.39265419     -0.39263551     -0.39262139
      -0.39244699     -0.38955622     -0.38950985     -0.38941674
      -0.38932950     -0.38918762     -0.38910303     -0.38901658
      -0.38897187     -0.38892107     -0.38888481     -0.38885475
      -0.38877381     -0.38872108     -0.38858992     -0.38676087
      -0.38666709     -0.38663390     -0.38652083     -0.38556823
      -0.38553173     -0.38549034     -0.38547353     -0.38539657
      -0.38534077     -0.38527012     -0.38477610     -0.38365300
      -0.38362063     -0.38358140     -0.38354745     -0.38324548
      -0.38322952     -0.38314372     -0.38311946     -0.38212770
      -0.38210470     -0.38207538     -0.38206474     -0.38160744
      -0.38157449     -0.38152971     -0.38149330     -0.38145178
      -0.38140967     -0.38140577     -0.38129482     -0.37974926
      -0.37953248     -0.37948480     -0.37939949     -0.37935540
      -0.37810773     -0.37804099     -0.37789766     -0.37767559
      -0.37715070     -0.37710651     -0.37706890     -0.37703157
      -0.37692551     -0.37689213     -0.37686706     -0.37685329
      -0.37683006     -0.37671166     -0.37666905     -0.37664116
      -0.37660998     -0.37656933     -0.37650116     -0.37647476
      -0.37619661     -0.37610491     -0.37598711     -0.37596449
      -0.37450295     -0.37443240     -0.37436255     -0.37427793
      -0.37314242     -0.37305215     -0.37282854     -0.37230449
       0.02881508      0.02883199      0.02886891      0.02890199
       0.02948826      0.02952489      0.02953922      0.02954246
       0.03071821      0.03076593      0.03079438      0.03081176
       0.03093653      0.03099080      0.03101168      0.03103312
       0.03149503      0.03156154      0.03163593      0.03172462
       0.03186098      0.03193051      0.03207340      0.03213291
       0.03276295      0.03281791      0.03287473      0.03293776
       0.03323952      0.03326563      0.03344186      0.03349700
       0.03406613      0.03407443      0.03424764      0.03428592
       0.03429285      0.03431585      0.03446995      0.03451454
       0.03495192      0.03503441      0.03509854      0.03515792
       0.03746775      0.03757650      0.03760085      0.03764073
       0.04068165      0.04084129      0.04115583      0.04118595
       0.04125477      0.04148060      0.04170838      0.04183464
       0.04213564      0.04218981      0.04222242      0.04227845
       0.04259793      0.04262812      0.04272441      0.04276624
       0.04661862      0.04676319      0.04677442      0.04692406
       0.04898744      0.04900467      0.04902736      0.04918139
       0.05030184      0.05392642      0.05397026      0.05402574
       0.05408283      0.05487329      0.05490692      0.05502044
       0.05507496      0.05544088      0.05549795      0.05583317
       0.05583415      0.05595424      0.05608526      0.05725453
       0.05727174      0.05736091      0.05736602      0.05781724
       0.05874640      0.05878686      0.05894092      0.05899969
       0.05931947      0.05960270      0.05973122      0.05980741
       0.05998090      0.06003841      0.06004474      0.06007169
       0.06008167      0.06020068      0.06035311      0.06213416
       0.06219223      0.06228081      0.06228157      0.06862334
       0.06864384      0.06877872      0.06888844      0.06893700
       0.06899816      0.06901012      0.06904743      0.06915335
       0.06918746      0.06926377      0.06935603      0.06945989
       0.07047386      0.07047903      0.07084323      0.07087927
       0.07684707      0.07709230      0.07712261      0.07741834
       0.08161624      0.08162489      0.08170542      0.08175268
       0.08238255      0.08241276      0.08248715      0.08250389
       0.08251984      0.08254576      0.08313748      0.08323287
       0.08341870      0.08345398      0.08348650      0.08352262
       0.08366540      0.08370797      0.08386116      0.08395778
       0.09115487      0.09129767      0.09138141      0.09148972
       0.09220929      0.09235978      0.09239229      0.09257012
       0.09263636      0.09287500      0.09293893      0.09305690
       0.09770207      0.09773785      0.09781683      0.09786683
       0.09795594      0.09803809      0.09815277      0.09842642
       0.10147978      0.10160599      0.10162422      0.10166848
       0.10231769      0.10233517      0.10237609      0.10239219
       0.10240240      0.10249753      0.10254864      0.10261731
       0.10369185      0.10376594      0.10387058      0.10390007
       0.10401768      0.10405097      0.10414802      0.10421593
       0.10891655      0.10893404      0.10895473      0.10903183
       0.10905937      0.10910944      0.10918567      0.10923237
       0.10936868      0.10938686      0.10943133      0.10955231
       0.10964370      0.10970334      0.10977797      0.10987387
       0.11012497      0.11014684      0.11020710      0.11036161
       0.11038695      0.11051860      0.11061203      0.11066389
       0.11313159      0.11316650      0.11320291      0.11324252
       0.11326251      0.11331880      0.11344632      0.11348615
       0.11559251      0.11564854      0.11575170      0.11584552
       0.11808835      0.11815678      0.11850017      0.11861266
       0.11891260      0.11901172      0.11906577      0.11908326
       0.11910069      0.11918702      0.11988836      0.11997406
       0.12073413      0.12087925      0.12112548      0.12205254
       0.12224038      0.12259522      0.12269524      0.12288991
       0.12289419      0.12293947      0.12312007      0.12334476
       0.12341624      0.12342948      0.12352008      0.12356797
       0.12365437      0.12866918      0.12871634      0.12873221
       0.12879173      0.14013053      0.14018598      0.14022782
       0.14023880      0.14063308      0.14066583      0.14094958
       0.14097403      0.14415820      0.14494165      0.14639097
       0.14639759      0.14645768      0.14652104      0.14793558
       0.14797267      0.14814819      0.14823806      0.14833295
       0.14837468      0.14975100      0.14990119      0.14990389
       0.15005457      0.15052899      0.15067902      0.15070043
       0.15081978      0.15135606      0.15145173      0.15247488
       0.15254184      0.15270014      0.15288304      0.15326206
       0.15348158      0.15550050      0.15560343      0.15560960
       0.15571352      0.15573753      0.15577748      0.15580559
       0.15593877      0.15947620      0.15966542      0.15971011
       0.15986210      0.16204324      0.16207484      0.16218877
       0.16219924      0.16229522      0.16243370      0.16246482
       0.16255568      0.16273357      0.16282987      0.16305899
       0.16309193      0.16323461      0.16329533      0.16362173
       0.16439493      0.16460173      0.16476388      0.16479211
       0.17016384      0.17017578      0.17023067      0.17023758
       0.17033022      0.17033934      0.17063116      0.17065769
       0.17093811      0.17100477      0.17102106      0.17110920
       0.17115551      0.17117912      0.17119890      0.17122471
       0.17478946      0.17494647      0.17496393      0.17509531
       0.17636269      0.17652687      0.17661795      0.17664856
       0.17671703      0.17672885      0.17676717      0.17688048
       0.17846214      0.17846970      0.17869347      0.17884704
       0.17887629      0.17900281      0.17980731      0.17993390
       0.18002121      0.18006476      0.18450123      0.18464959
       0.18468520      0.18481237      0.18619585      0.18640571
       0.18656883      0.18699754      0.18723529      0.18771781
       0.18802137      0.18811869      0.19006117      0.19010350
       0.19114724      0.19166202      0.19193102
 Fermi Energy [eV] :    5.222709
  
  Lowest Eigenvalues of the unoccupied subspace spin            1
 -----------------------------------------------------
 OT| Eigensolver reached convergence in 65 iterations
       0.27191335
  
  Lowest Eigenvalues of the unoccupied subspace spin            2
 -----------------------------------------------------
 OT| Eigensolver reached convergence in 65 iterations
       0.19626876
  
 HOMO - LUMO gap [eV] :    2.181634
 HOMO - LUMO gap [eV] :    0.118036

 ENERGY| Total FORCE_EVAL ( QS ) energy [a.u.]:            -5782.289977404527235

 OPT| **************************************************************************
 OPT| Step number                                                             12
 OPT| Optimization method                                                   BFGS
 OPT| Total energy [hartree]                                    -5782.2899774045
 OPT| Effective energy change [hartree]                            -0.0001293142
 OPT| Predicted energy change [hartree]                            -0.0001077211
 OPT| Scaling factor                                                0.0000000000
 OPT| Step size                                                     0.0054857160
 OPT| Trust radius                                                  0.4724315332
 OPT| Decrease in energy                                                     YES
 OPT| Used time [s]                                                       57.043
 OPT|
 OPT| Maximum step size                                             0.0054857160
 OPT| Convergence limit for maximum step size                       0.0030000000
 OPT| Maximum step size is converged                                          NO
 OPT|
 OPT| RMS step size                                                 0.0013074010
 OPT| Convergence limit for RMS step size                           0.0015000000
 OPT| RMS step size is converged                                             YES
 OPT|
 OPT| Maximum gradient                                              0.0014237979
 OPT| Convergence limit for maximum gradient                        0.0004500000
 OPT| Maximum gradient is converged                                           NO
 OPT|
 OPT| RMS gradient                                                  0.0002744155
 OPT| Convergence limit for RMS gradient                            0.0003000000
 OPT| RMS gradient is converged                                              YES
 OPT| **************************************************************************
 OPT| Estimated peak process memory after this step [MiB]                    360

 --------------------------
 OPTIMIZATION STEP:     13
 --------------------------

 Spin 1

 Number of electrons:                                                        768
 Number of occupied orbitals:                                                768
 Number of molecular orbitals:                                               768

 Spin 2

 Number of electrons:                                                        767
 Number of occupied orbitals:                                                767
 Number of molecular orbitals:                                               767

 Number of orbital functions:                                               3328
 Number of independent orbital functions:                                   3328

 Parameters for the always stable predictor-corrector (ASPC) method:

  ASPC order: 3

  B(1) =   3.000000
  B(2) =  -3.428571
  B(3) =   1.928571
  B(4) =  -0.571429
  B(5) =   0.071429

 Parameters for the always stable predictor-corrector (ASPC) method:

  ASPC order: 3

  B(1) =   3.000000
  B(2) =  -3.428571
  B(3) =   1.928571
  B(4) =  -0.571429
  B(5) =   0.071429

 Extrapolation method: ASPC


 SCF WAVEFUNCTION OPTIMIZATION

  ----------------------------------- OT ---------------------------------------
  Minimizer      : DIIS                : direct inversion
                                         in the iterative subspace
                                         using   7 DIIS vectors
                                         safer DIIS on
  Preconditioner : FULL_SINGLE_INVERSE : inversion of 
                                         H + eS - 2*(Sc)(c^T*H*c+const)(Sc)^T
  Precond_solver : DEFAULT
  stepsize       :    0.08000000                  energy_gap     :    0.08000000
  eps_taylor     :   0.10000E-15                  max_taylor     :             4
  ----------------------------------- OT ---------------------------------------

  Step     Update method      Time    Convergence         Total energy    Change
  ------------------------------------------------------------------------------
     1 OT DIIS     0.80E-01    1.6     0.00005891     -5782.2860397063 -5.78E+03
     2 OT DIIS     0.80E-01    1.4     0.00003817     -5782.2871019192 -1.06E-03
     3 OT DIIS     0.80E-01    1.4     0.00003051     -5782.2877250264 -6.23E-04
     4 OT DIIS     0.80E-01    1.4     0.00002072     -5782.2885830061 -8.58E-04
     5 OT DIIS     0.80E-01    1.4     0.00001131     -5782.2892311478 -6.48E-04
     6 OT DIIS     0.80E-01    1.4     0.00000928     -5782.2893397506 -1.09E-04
     7 OT DIIS     0.80E-01    1.4     0.00000743     -5782.2894260276 -8.63E-05
     8 OT DIIS     0.80E-01    1.4     0.00000631     -5782.2894935396 -6.75E-05
     9 OT DIIS     0.80E-01    1.4     0.00000560     -5782.2895486971 -5.52E-05
    10 OT DIIS     0.80E-01    1.4     0.00000499     -5782.2896155269 -6.68E-05
    11 OT DIIS     0.80E-01    1.4     0.00000461     -5782.2896670662 -5.15E-05
    12 OT DIIS     0.80E-01    1.4     0.00000430     -5782.2897148154 -4.77E-05
    13 OT DIIS     0.80E-01    1.4     0.00000397     -5782.2897659936 -5.12E-05
    14 OT DIIS     0.80E-01    1.5     0.00000348     -5782.2898350056 -6.90E-05
