     192
 i =        6, E =     -5782.2891176733
Ti         0.0005337162        0.0003008337        0.0001755450
Ti        -0.0000722257        0.0003451160       -0.0002319444
Ti        -0.0000139157       -0.0001061189        0.0037969588
Ti        -0.0001639195       -0.0002031792       -0.0035581003
Ti         0.0001902255        0.0006520754        0.0000697044
Ti         0.0000670742       -0.0005182840        0.0000743248
Ti         0.0001063810        0.0006486298        0.0033043564
Ti         0.0002426258        0.0004650676       -0.0032072349
Ti         0.0001962735        0.0003668637       -0.0033233488
Ti         0.0003878138        0.0003257351        0.0038822797
Ti         0.0001658856       -0.0002535007       -0.0003351440
Ti        -0.0005253866        0.0005797616        0.0001841062
Ti         0.0005195436        0.0004760260        0.0001893481
Ti        -0.0000757445       -0.0002947473       -0.0001514027
Ti         0.0000290044        0.0005489895       -0.0040875581
Ti         0.0003809746        0.0005742999        0.0030421629
Ti         0.0000795918       -0.0001809520       -0.0000777757
Ti         0.0003732993       -0.0003390300       -0.0000613227
Ti         0.0003506209        0.0005080695        0.0029830553
Ti         0.0002465483        0.0002822852       -0.0038192800
Ti         0.0004067618       -0.0007471913        0.0003126408
Ti        -0.0001862973        0.0002544037       -0.0000816039
Ti        -0.0003517914       -0.0002662000        0.0031654918
Ti        -0.0003260679       -0.0000842337       -0.0033099294
Ti        -0.0001315416       -0.0004093409       -0.0030037280
Ti        -0.0001011675       -0.0005811134        0.0037478623
Ti        -0.0001745020        0.0002785062       -0.0003385117
Ti        -0.0003189037        0.0000726126        0.0003951224
Ti         0.0005496843        0.0001202891        0.0003746385
Ti        -0.0002732612        0.0001377099       -0.0001680726
Ti        -0.0002472112       -0.0002804005        0.0029004186
Ti        -0.0001530246       -0.0003290980       -0.0026539978
Ti        -0.0004010335       -0.0002520717       -0.0030134316
Ti         0.0000139821       -0.0003883833        0.0033676907
Ti        -0.0000886119        0.0003031636       -0.0002399261
Ti        -0.0003911946       -0.0006200056        0.0003766412
Ti        -0.0003691419       -0.0005191501        0.0037781770
Ti        -0.0000904513       -0.0002109677       -0.0025005759
Ti         0.0007448370       -0.0005453101        0.0001872605
Ti        -0.0002072268        0.0004180956       -0.0002416861
Ti        -0.0000406612        0.0001930731       -0.0002776277
Ti        -0.0001802776        0.0002876773        0.0003535588
Ti        -0.0003084287       -0.0003540890       -0.0036374981
Ti        -0.0001106033       -0.0003766173        0.0028429121
Ti         0.0003654673       -0.0001154614        0.0001463700
Ti         0.0000265006       -0.0003745188       -0.0002059521
Ti         0.0001562953        0.0004232208        0.0024140193
Ti         0.0000114804        0.0002493449       -0.0034442911
Ti         0.0000034346        0.0001175850       -0.0033775331
Ti         0.0003160623        0.0002514332        0.0028463389
Ti         0.0000295790       -0.0002489248       -0.0001745311
Ti        -0.0005304491       -0.0001143598        0.0000780342
Ti         0.0001590925        0.0002812226        0.0031574906
Ti         0.0002125814        0.0001327537       -0.0027407459
Ti         0.0000648437       -0.0003584403       -0.0001657986
Ti        -0.0003884120       -0.0003669748        0.0002623573
Ti         0.0000547809        0.0003756885       -0.0030242769
Ti         0.0001114380        0.0003685327        0.0029494868
Ti        -0.0003328845        0.0005546572        0.0001137004
Ti         0.0000666618       -0.0004179022       -0.0002175686
Ti        -0.0001609985       -0.0005815141        0.0003229162
Ti        -0.0001000746        0.0002667428       -0.0002975366
Ti        -0.0002132545       -0.0004552024        0.0029094483
Ti        -0.0003005033       -0.0004752303       -0.0026722675
O        -0.0001120282       -0.0000927703       -0.0013621100
O        -0.0000707389       -0.0003716708        0.0007165798
O         0.0001523334        0.0001173628       -0.0009700434
O        -0.0004031370       -0.0000097316        0.0019670504
O         0.0002400211        0.0001685411        0.0011068145
O         0.0001670442       -0.0003433349       -0.0023677283
O        -0.0003374003        0.0000684898       -0.0005901583
O         0.0000122914        0.0002233959        0.0012452327
O        -0.0000331458       -0.0003981550       -0.0009432905
O        -0.0000471828        0.0000524202        0.0005493773
O         0.0000535663       -0.0000802735       -0.0008058872
O        -0.0002758890       -0.0001331601        0.0017836575
O         0.0000922081       -0.0002445145        0.0011372954
O        -0.0000023448       -0.0000878210       -0.0022173984
O        -0.0000081198        0.0001666673       -0.0004238687
O         0.0002844719       -0.0000354415        0.0010642126
O        -0.0002121250        0.0000073877        0.0009373296
O         0.0000746625        0.0001581940       -0.0005105645
O        -0.0000871432       -0.0002277814        0.0021506977
O        -0.0002815171       -0.0000910129       -0.0007548283
O        -0.0000348842       -0.0000051078        0.0005455118
O        -0.0000493933        0.0001303348       -0.0010885748
O         0.0000390655       -0.0000497788       -0.0019284348
O         0.0001287251        0.0000836376        0.0012428251
O        -0.0000536502        0.0000251218       -0.0011105800
O        -0.0000734179        0.0001589736        0.0007472146
O         0.0000739482        0.0001224287       -0.0007111118
O         0.0004810285       -0.0000362615        0.0018527575
O         0.0002115980        0.0001067582        0.0009160802
O         0.0001365733        0.0007289651       -0.0023047810
O         0.0002111583        0.0000585021       -0.0005581492
O         0.0001628359        0.0001711632        0.0008967780
O         0.0000135434       -0.0001219972       -0.0009806146
O        -0.0001480647       -0.0002748340        0.0006489379
O        -0.0000634425       -0.0000955287       -0.0007122414
O        -0.0006375581       -0.0001777286        0.0019833047
O        -0.0000002482       -0.0001079619        0.0012842198
O         0.0000344748       -0.0005701561       -0.0018598173
O        -0.0002129324        0.0000885689       -0.0005629770
O        -0.0000758511       -0.0001427138        0.0012371569
O         0.0000616776       -0.0005959991       -0.0019932994
O         0.0000101346       -0.0001024276        0.0011233902
O        -0.0000561692       -0.0002219833        0.0005677348
O        -0.0001295251       -0.0002059760       -0.0011804582
O        -0.0005733567       -0.0001072474        0.0016794808
O        -0.0001010171       -0.0001912095       -0.0010112272
O         0.0000362643        0.0000748834        0.0009934794
O        -0.0002485299        0.0001015065       -0.0006662075
O        -0.0000208487       -0.0002023368       -0.0010305663
O        -0.0002161551       -0.0000888012        0.0008515279
O         0.0002803235        0.0000627692       -0.0006307651
O        -0.0000636884       -0.0000173274        0.0015434107
O         0.0001210622       -0.0000004278        0.0009024490
O         0.0001389983        0.0001560095       -0.0020519186
O        -0.0000566240        0.0000328486       -0.0005173965
O         0.0003499975        0.0000778435        0.0011513244
O         0.0002118527        0.0002380409       -0.0022682499
O         0.0001231638       -0.0000121751        0.0007658373
O        -0.0001642566        0.0000621805        0.0010199901
O        -0.0000633838       -0.0000174031       -0.0005505122
O        -0.0000702831       -0.0000929998        0.0006663210
O        -0.0001647755       -0.0002853730       -0.0011729997
O         0.0001746280       -0.0000081700        0.0018907734
O        -0.0000249844        0.0000811016       -0.0006284064
O        -0.0000506694       -0.0000574083        0.0006637184
O        -0.0001713425        0.0002484027       -0.0013424750
O         0.0001548752       -0.0000230395        0.0015452706
O        -0.0000782278        0.0000156877       -0.0008510189
O         0.0001374591        0.0001618571       -0.0020025705
O         0.0001283155        0.0002941710        0.0008283451
O        -0.0001316169        0.0002290142        0.0008706138
O        -0.0000081632        0.0000021464       -0.0007452597
O         0.0000915658        0.0003412905        0.0010341188
O         0.0001329645        0.0001654235       -0.0018963594
O        -0.0000744694       -0.0000391037       -0.0005998798
O         0.0002700761        0.0002394939        0.0009334281
O        -0.0000451188        0.0002058728       -0.0010647348
O        -0.0001335425       -0.0000710284        0.0007604159
O         0.0003383619        0.0000064495       -0.0008699696
O        -0.0000709491        0.0000383454        0.0013661701
O         0.0000215008       -0.0000451619       -0.0007356117
O        -0.0001558611        0.0002918925        0.0007078645
O        -0.0000996740       -0.0000480800       -0.0005013305
O         0.0002208792       -0.0001626751        0.0018408132
O        -0.0000379488       -0.0000679168        0.0011100338
O         0.0000045418        0.0003567142       -0.0017618241
O         0.0002334617        0.0000891943       -0.0004668493
O         0.0001204267       -0.0001196749        0.0008395249
O         0.0000681327        0.0003936360       -0.0020011456
O         0.0000454561       -0.0000330542        0.0009276699
O        -0.0000181857        0.0002384556        0.0005578747
O        -0.0001176696       -0.0000077173       -0.0009157644
O         0.0001683226       -0.0001404528        0.0016204256
O        -0.0001228495       -0.0001845858       -0.0006720149
O         0.0000666366        0.0000218818        0.0007442165
O         0.0002833977        0.0001050529       -0.0006038587
O        -0.0000724018        0.0000063992       -0.0011293005
O        -0.0001871644       -0.0003402842        0.0007335367
O         0.0001952291       -0.0000550232       -0.0009617884
O        -0.0003172605        0.0000739102        0.0015672504
O         0.0000461365        0.0001491166        0.0010452296
O         0.0001482313       -0.0002145416       -0.0020054134
O        -0.0002950800       -0.0000179340       -0.0006692303
O         0.0000677382        0.0000643087        0.0010023056
O        -0.0000629850       -0.0003302056       -0.0007639546
O        -0.0001596798        0.0000054201        0.0006029076
O         0.0000701669       -0.0002423474       -0.0007118178
O        -0.0002477167       -0.0000855855        0.0014805841
O        -0.0000538059       -0.0002280169        0.0010408054
O         0.0001126029       -0.0001403497       -0.0017739255
O         0.0000129926        0.0000532021       -0.0004737849
O         0.0002292287       -0.0000537348        0.0008180511
O        -0.0001844492       -0.0000899477        0.0007648377
O         0.0000101374        0.0000922746       -0.0005383538
O        -0.0001272679       -0.0000105486        0.0016793943
O        -0.0002243804       -0.0002210397       -0.0007500062
O        -0.0001405366        0.0000265000        0.0005004368
O        -0.0000715417        0.0000833907       -0.0008029926
O         0.0000019699       -0.0000508414       -0.0015958290
O        -0.0000755068        0.0000631823        0.0011654285
O        -0.0001094781        0.0000251740       -0.0008870162
O        -0.0001731300        0.0001392909        0.0007321224
O         0.0000471273       -0.0000396056       -0.0006844394
O         0.0004091838        0.0000789734        0.0014802777
O         0.0000299550        0.0001352092        0.0008331079
O         0.0001304101        0.0005542119       -0.0019199609
O         0.0001483387       -0.0000482017       -0.0005701572
O         0.0001322106        0.0000690820        0.0007141266
     192
 i =        7, E =     -5781.9234176501
Ti         0.0075137761        0.0072261271        0.0093768031
Ti        -0.0136931808        0.0040896490       -0.0180265678
Ti        -0.0205320089       -0.0212892381       -0.0374406292
Ti        -0.0212785110       -0.0290845461        0.0527141777
Ti        -0.0188959472        0.0104261053        0.0126184607
Ti        -0.0089050945       -0.0158536849       -0.0009600618
Ti         0.0263731164        0.0130553383       -0.0636450387
Ti         0.0002251798        0.0088538247        0.0328905836
Ti        -0.0061225294       -0.0039054704        0.0400271083
Ti         0.0043698509        0.0300939715       -0.0200391105
Ti        -0.0052888131       -0.0317619935       -0.0108353016
Ti        -0.0040999722        0.0275103728        0.0125080784
Ti        -0.0225061250        0.0202400683        0.0181317394
Ti         0.0079115504       -0.0334985695       -0.0130942565
Ti         0.0122926728        0.0147064586        0.0297276678
Ti        -0.0052788831        0.0108516092       -0.0633950718
Ti        -0.0096235838       -0.0254552709       -0.0194414222
Ti        -0.0085534028        0.0030685914       -0.0033305313
Ti         0.0028945454        0.0088383836       -0.0513734173
Ti        -0.0024423829        0.0363873095        0.0333135505
Ti         0.0046831715       -0.0240647055        0.0142555155
Ti        -0.0174504455        0.0336158957       -0.0125296910
Ti        -0.0009144421       -0.0329607372       -0.0425794820
Ti         0.0068565391       -0.0240324076        0.0546769899
Ti        -0.0210703007       -0.0016943227        0.0605002805
Ti        -0.0246169479       -0.0121837224       -0.0304977351
Ti         0.0143335742        0.0003707146       -0.0185433729
Ti         0.0202916308       -0.0434999793        0.0303812412
Ti        -0.0140201336       -0.0578738756        0.0252548410
Ti         0.0006722535        0.0222032800       -0.0110370484
Ti         0.0026838546       -0.0295573269       -0.0321074325
Ti        -0.0175423256        0.0004168032        0.0568060897
Ti        -0.0053465418       -0.0414661099        0.0627997797
Ti        -0.0254281405       -0.0080316625       -0.0452759303
Ti        -0.0127970946        0.0041706045       -0.0161119435
Ti         0.0151179759       -0.0185990437        0.0247312842
Ti        -0.0070063138       -0.0131332504       -0.0377254090
Ti        -0.0152457773       -0.0372462159        0.0495388928
Ti        -0.0013564964       -0.0151025031        0.0197942196
Ti         0.0047671597        0.0082282523       -0.0259100607
Ti        -0.0105547955        0.0230380304       -0.0078068930
Ti         0.0308749453       -0.0531442040        0.0219675085
Ti        -0.0031775715       -0.0015426641        0.0484821011
Ti        -0.0338783157       -0.0314363859       -0.0275091980
Ti        -0.0313764850        0.0472772851        0.0047594507
Ti         0.0123101029       -0.0008487747       -0.0142108144
Ti         0.0273371669        0.0079019523       -0.0576188382
Ti         0.0215355255        0.0352028583        0.0365681101
Ti         0.0128502062        0.0299795587        0.0410584146
Ti        -0.0073447891        0.0339689920       -0.0619020943
Ti         0.0206119122       -0.0279286157       -0.0191163816
Ti        -0.0048033405        0.0470865537        0.0177890424
Ti         0.0260025638        0.0347716691       -0.0600190335
Ti        -0.0011313619        0.0297554328        0.0360145184
Ti        -0.0090298771        0.0006132777       -0.0043950616
Ti         0.0054866659        0.0386110847        0.0059621079
Ti         0.0251689648       -0.0030204104        0.0375338929
Ti         0.0267607113        0.0300973323       -0.0706750493
Ti         0.0032904388        0.0067859674        0.0199215124
Ti         0.0220935300       -0.0112326264       -0.0114200958
Ti         0.0223415216       -0.0150444589        0.0217243284
Ti         0.0173056338        0.0353297602       -0.0182681994
Ti         0.0049272544       -0.0014058858       -0.0467710972
Ti         0.0075522556       -0.0058905143        0.0604066251
O        -0.0014029421       -0.0055404059        0.0020403761
O         0.0030545892        0.0012719802       -0.0227394394
O         0.0066003275        0.0097820356       -0.0010451708
O        -0.0028863437       -0.0046745814       -0.0238917021
O         0.0076469476        0.0095866083        0.0076361303
O         0.0046799645        0.0050743260        0.0146182639
O        -0.0007526160        0.0046023978        0.0307483834
O         0.0024291203        0.0064804735       -0.0160213337
O         0.0015307308       -0.0007618155        0.0188334569
O         0.0045599932        0.0016501733       -0.0309486171
O        -0.0115054621        0.0011445145        0.0104701359
O        -0.0059797800       -0.0005328980       -0.0267479548
O         0.0033925680        0.0029186000        0.0107535226
O         0.0013440105       -0.0075092324        0.0089726684
O         0.0090877925        0.0098933311        0.0277670938
O        -0.0024778380        0.0009474608       -0.0228029350
O         0.0068493014        0.0020785460       -0.0271900424
O         0.0091774490        0.0107608352        0.0363390892
O         0.0028778891       -0.0086471966       -0.0268574515
O        -0.0009995490        0.0007413235        0.0139368730
O         0.0041415551        0.0021578742       -0.0205505563
O         0.0009768248       -0.0051418532        0.0111254651
O         0.0027015941        0.0008325506        0.0198828390
O         0.0045171452       -0.0078469463        0.0137093552
O         0.0000192045        0.0025562781        0.0147260487
O         0.0025320278       -0.0135158962       -0.0219477286
O         0.0001018487        0.0097011771        0.0089584229
O        -0.0007780808        0.0011471829       -0.0327849610
O         0.0058743568        0.0038957270        0.0011654030
O         0.0037815511        0.0095252749        0.0159801099
O        -0.0132757428        0.0045019554        0.0293066227
O         0.0000409823        0.0054732473       -0.0281436696
O         0.0075231308       -0.0070398234        0.0159766524
O        -0.0020510183        0.0038900365       -0.0309386134
O        -0.0054546690        0.0004640177        0.0022524106
O        -0.0159430770       -0.0085183575       -0.0228009062
O        -0.0025385276       -0.0050963083        0.0206796468
O         0.0094165548       -0.0038412361        0.0209252181
O         0.0134166994        0.0085898626        0.0336161991
O        -0.0013462966       -0.0103615994       -0.0176381946
O        -0.0077064699       -0.0040863995        0.0214397930
O         0.0045748379       -0.0045490452        0.0206222789
O         0.0029422959        0.0079554981       -0.0299228785
O        -0.0049278001       -0.0092847884        0.0162965525
O        -0.0011655928        0.0041267649       -0.0319919587
O        -0.0063945278       -0.0054839123       -0.0060399489
O         0.0026977474        0.0062264382       -0.0230631771
O         0.0059327622        0.0007882974        0.0310579865
O         0.0056161487        0.0142265996        0.0091873383
O        -0.0037625730       -0.0055814496       -0.0257013889
O        -0.0011198238        0.0044390217        0.0007987467
O         0.0068917788       -0.0069296070       -0.0289135192
O         0.0020005099        0.0191463678        0.0065417788
O         0.0122566006        0.0073656476        0.0187236692
O        -0.0003717700        0.0041683151        0.0266744982
O         0.0005452954       -0.0015944887       -0.0236464773
O        -0.0001951224        0.0076953429        0.0174777542
O         0.0067823947        0.0185133267        0.0085180552
O         0.0064611516       -0.0014886234       -0.0285672107
O        -0.0050187459        0.0043396879        0.0350266882
O         0.0011670676       -0.0038388523       -0.0277726935
O        -0.0078003684        0.0122880773        0.0123142177
O         0.0185536930       -0.0020360981       -0.0267754054
O         0.0127775900        0.0047556992       -0.0008995595
O         0.0011824734        0.0003265325       -0.0207063938
O        -0.0071794132        0.0003084269        0.0108464599
O         0.0058477659        0.0090823912       -0.0353646851
O         0.0090447095       -0.0015511107       -0.0013020619
O        -0.0024561888        0.0134493253        0.0110873641
O         0.0074069184        0.0003467290        0.0065607246
O         0.0100645896        0.0123489770       -0.0241832927
O         0.0024880127       -0.0008633607        0.0297014656
O         0.0011544975        0.0036147540        0.0088681904
O         0.0088604570        0.0137924754        0.0144719957
O        -0.0032142778       -0.0016502991        0.0287797403
O        -0.0047973144        0.0141184951       -0.0228331312
O         0.0044200655       -0.0007373404        0.0143845382
O        -0.0024214225       -0.0001118058       -0.0213482396
O         0.0029514758       -0.0015666803       -0.0007252279
O         0.0074599965        0.0087538483       -0.0317392464
O         0.0077412482       -0.0112659011        0.0198936382
O        -0.0025613975       -0.0054723646       -0.0246533936
O        -0.0107465497        0.0010200211        0.0104729536
O        -0.0143986681       -0.0129156509       -0.0258477662
O        -0.0033432739       -0.0062849268        0.0115513215
O         0.0071094659       -0.0090661122        0.0246171408
O        -0.0033388235        0.0069683477        0.0322734324
O        -0.0000777364       -0.0106701688       -0.0340458403
O        -0.0067729957       -0.0078155243        0.0203399881
O         0.0047548653       -0.0066840805        0.0100592854
O         0.0034492979       -0.0089697452       -0.0264889204
O        -0.0047974765       -0.0083440897        0.0219032668
O        -0.0178867265        0.0017901409       -0.0289993228
O        -0.0107312752       -0.0048535325        0.0113837498
O        -0.0032806700        0.0054233349       -0.0264769129
O         0.0003014248        0.0008744868        0.0318807926
O        -0.0079788544        0.0072047006        0.0040564370
O        -0.0088455338        0.0039894069       -0.0237465480
O         0.0079217235       -0.0050406911       -0.0056215061
O         0.0114097444       -0.0063483141       -0.0318325922
O        -0.0043782688        0.0090397656        0.0100230592
O        -0.0015675098        0.0182938089        0.0159879154
O         0.0015971428       -0.0049667210        0.0300069010
O         0.0023239581       -0.0010624780       -0.0192132298
O        -0.0059012365        0.0032577138        0.0146101852
O        -0.0095360875       -0.0005165657       -0.0320399938
O        -0.0113843232       -0.0111531813        0.0050164807
O        -0.0040516153       -0.0080828337       -0.0253902843
O        -0.0082140281        0.0034957544        0.0138822917
O        -0.0035496259       -0.0076258442        0.0258029974
O         0.0095982233       -0.0020309146        0.0284891545
O        -0.0060535650       -0.0052104704       -0.0218857593
O         0.0099903725       -0.0063418453       -0.0220286072
O         0.0066983242       -0.0016413872        0.0359334100
O        -0.0075714702       -0.0080992211       -0.0332780479
O         0.0008860987       -0.0091563127        0.0039857841
O        -0.0063652540        0.0036477239       -0.0228632991
O        -0.0063859118       -0.0166349336        0.0167259594
O        -0.0051581891        0.0007770965        0.0192005244
O        -0.0109225677       -0.0097983087        0.0178445735
O        -0.0083442792       -0.0009188722        0.0131313734
O        -0.0070204744       -0.0141841536       -0.0230938703
O        -0.0009449376       -0.0045682373        0.0037835570
O        -0.0031126145       -0.0049660324       -0.0326570208
O        -0.0035217908        0.0046726311        0.0045998336
O        -0.0019141212       -0.0033138189        0.0171839868
O        -0.0137742330       -0.0055406040        0.0298498611
O        -0.0014065403       -0.0015500469       -0.0250503298
     192
 i =        8, E =     -5782.2894509706
Ti         0.0004937230        0.0006937009        0.0009138595
Ti        -0.0004877915        0.0005915521       -0.0009019683
Ti        -0.0004361856       -0.0006890389        0.0021659552
Ti        -0.0007284664       -0.0007500605       -0.0019814880
Ti        -0.0001436474        0.0006050662        0.0005432230
Ti         0.0001629795       -0.0010831972       -0.0002342178
Ti         0.0005299072        0.0011447722        0.0016382815
Ti         0.0004009818        0.0006912297       -0.0019031347
Ti         0.0000884751        0.0005871130       -0.0016817985
Ti         0.0004387373        0.0011235853        0.0025365830
Ti         0.0002437062       -0.0008940976       -0.0007036920
Ti        -0.0007658353        0.0003199548        0.0006898913
Ti         0.0004851569        0.0000748039        0.0007418525
Ti         0.0002143555       -0.0009229006       -0.0006878821
Ti         0.0003951256        0.0008295327       -0.0029506248
Ti         0.0003940219        0.0010127702        0.0014400447
Ti         0.0000125268       -0.0007072115       -0.0008985039
Ti         0.0003352338       -0.0006123431        0.0001897418
Ti         0.0004454631        0.0008366663        0.0013264744
Ti         0.0003062844        0.0008384623       -0.0026061191
Ti         0.0004790604       -0.0005496352        0.0008166607
Ti        -0.0006954159        0.0008987803       -0.0005632848
Ti        -0.0003605876       -0.0013500342        0.0013567689
Ti        -0.0003379207       -0.0004880005       -0.0013831890
Ti        -0.0006823612       -0.0004514660       -0.0007104673
Ti        -0.0005790807       -0.0013691017        0.0021723931
Ti        -0.0001196372        0.0004221053       -0.0009710865
Ti         0.0000226382       -0.0003578590        0.0015755416
Ti         0.0000279344        0.0001526324        0.0012363823
Ti        -0.0005112025        0.0006007850       -0.0006685271
Ti        -0.0001765043       -0.0013018985        0.0014246618
Ti        -0.0005750162       -0.0004143004       -0.0006948154
Ti        -0.0005382642       -0.0007438623       -0.0009129813
Ti        -0.0003170835       -0.0009284634        0.0016811701
Ti        -0.0004764460        0.0005073411       -0.0007856994
Ti        -0.0005104882       -0.0002080741        0.0012047003
Ti        -0.0005950148       -0.0011641325        0.0021545229
Ti        -0.0004838814       -0.0007203732       -0.0010594216
Ti         0.0009291451       -0.0003442633        0.0008359330
Ti        -0.0002268521        0.0006892184       -0.0010962723
Ti        -0.0003378681        0.0006495631       -0.0006465490
Ti         0.0004592138        0.0003101880        0.0011426226
Ti        -0.0004049399       -0.0004497916       -0.0020763095
Ti        -0.0007607476       -0.0013380447        0.0014513004
Ti        -0.0003876799        0.0003218543        0.0003246802
Ti         0.0004107291       -0.0006425631       -0.0008305992
Ti         0.0006612650        0.0007175312        0.0009955556
Ti         0.0003904669        0.0007711164       -0.0019083665
Ti         0.0004071930        0.0006154207       -0.0015781185
Ti         0.0002615759        0.0010811951        0.0009160904
Ti         0.0005244461       -0.0008188848       -0.0008912486
Ti        -0.0005195004        0.0004252744        0.0007055746
Ti         0.0006359349        0.0011633656        0.0015028418
Ti         0.0002030765        0.0007115764       -0.0013876815
Ti         0.0001002813       -0.0005500025       -0.0004405053
Ti         0.0000423409       -0.0002319178        0.0004481053
Ti         0.0006576000        0.0004773367       -0.0016319554
Ti         0.0006282440        0.0011667103        0.0005578506
Ti        -0.0001009840        0.0000348221        0.0007411794
Ti         0.0005205949       -0.0008486232       -0.0007581475
Ti         0.0001133703        0.0000405719        0.0009668381
Ti         0.0000264804        0.0009428022       -0.0008373916
Ti        -0.0001785149       -0.0006835104        0.0010404775
Ti        -0.0001999474       -0.0005261092       -0.0007892442
O        -0.0001972748       -0.0000143198       -0.0013417304
O        -0.0000741407       -0.0003825299        0.0001608942
O         0.0003261996        0.0001070829       -0.0008151553
O        -0.0001225479       -0.0000736659       -0.0003348639
O         0.0006735886        0.0003243957        0.0013142094
O         0.0005651181       -0.0007703554       -0.0011286727
O        -0.0001090017        0.0006028169        0.0007067271
O         0.0001132534        0.0006868667        0.0007458827
O        -0.0000626770       -0.0001647007       -0.0005670162
O        -0.0001313089        0.0001644940       -0.0003167161
O        -0.0001995702       -0.0001268351       -0.0005425915
O        -0.0006362131       -0.0004052800       -0.0000961695
O         0.0004577987       -0.0002233494        0.0015282967
O         0.0002869646       -0.0003979070       -0.0004259762
O        -0.0000994634        0.0006940389        0.0008984405
O         0.0001325459        0.0001387399        0.0004727704
O        -0.0001746021        0.0002033064        0.0003476465
O         0.0000333790        0.0007051986        0.0008549844
O        -0.0001251177       -0.0004983871        0.0003824211
O        -0.0002780234       -0.0001490490       -0.0005775246
O        -0.0000774135       -0.0001099900       -0.0001714203
O        -0.0000908739        0.0001902071       -0.0006725205