     192
 i =        6, E =     -5782.2891176733
Ti         0.0005168765        0.0021652799       -0.0003429072
Ti         1.8887457255        1.8881842104        4.8078868732
Ti         0.0013497571        1.8893661841        2.4031690528
Ti         1.8889872936        0.0016929559        7.2115833545
Ti         0.0014620429        3.7756754179        0.0025213307
Ti         1.8886887767       13.2381751270        4.8059935986
Ti        11.3495977548        1.8878655057        2.4048443326
Ti         5.6692462263        0.0006006991        7.2159496832
Ti         1.8883544379        3.7761929085        7.2088918631
Ti         0.0006903020       13.2368101780        2.4050783068
Ti         5.6696379535        1.8892410907        4.8038128845
Ti        11.3501939156       -0.0000918172       -0.0018682925
Ti         3.7771604230        0.0002287148       -0.0033725337
Ti        13.2375036122        1.8891713042        4.8095020117
Ti        13.2371255599        0.0005174705        7.2102439029
Ti         3.7761157023        1.8878883161        2.4063515393
Ti         1.8886444636        5.6699925435        4.8120341226
Ti         0.0011683664       11.3486280171        0.0013155057
Ti         0.0007836096        5.6690835842        2.3990611731
Ti         1.8883788071       11.3493770140        7.2103560979
Ti         0.0007397137        7.5700458085        0.0051852254
Ti         1.8888759644        9.4617446841        4.8090265349
Ti         7.5696568614        1.8895162050        2.4087015054
Ti         9.4625216557        0.0015086651        7.2131644016
Ti         1.8889767302        7.5697420713        7.2062515664
Ti         0.0015249468        9.4632132941        2.4017236259
Ti         9.4625055054        1.8882771488        4.8066718059
Ti         7.5692540396        0.0021823203       -0.0061714210
Ti         3.7764540574        3.7776972921       -0.0006779123
Ti        13.2376243888       13.2370632790        4.8078233109
Ti        11.3502260090        5.6704690179        2.4004850204
Ti         5.6698799978       11.3503037067        7.2142663917
Ti        13.2378909581        3.7771685267        7.2071505606
Ti         3.7767346610       13.2380829075        2.4079039467
Ti         5.6698417608        5.6692002016        4.8078576305
Ti        11.3496354030       11.3508296317       -0.0004168410
Ti        11.3503796256       13.2383680976        2.4062435565
Ti         5.6697927367        3.7770805218        7.2130873238
Ti         3.7763093501       11.3507419311       -0.0017862533
Ti        13.2375690251        5.6690133730        4.8137002740
Ti         5.6698541795       13.2370429556        4.8021015267
Ti        11.3494884819        3.7774905537        0.0009341671
Ti        13.2377600478       11.3504215538        7.2087001584
Ti         3.7769158760        5.6705891441        2.4017858596
Ti         3.7770255488        7.5680046713        0.0023108141
Ti        13.2372850795        9.4627829378        4.8108512680
Ti         7.5688746611        5.6691703562        2.4046764430
Ti         9.4619522036       11.3494844915        7.2117523398
Ti        13.2372499959        7.5689500959        7.2047479209
Ti         3.7761902221        9.4618355541        2.4050566163
Ti         9.4622261436        5.6700712554        4.8108066653
Ti         7.5699140049       11.3487936555       -0.0044560647
Ti        11.3496151056        9.4617421281        2.4034838272
Ti         5.6693131700        7.5689101798        7.2104723256
Ti         5.6697765183        9.4627079883        4.8049167511
Ti        11.3501710332        7.5683112649        0.0036992305
Ti         9.4619763251        3.7760697840        7.2102352046
Ti         7.5689395355       13.2367387122        2.4106779081
Ti         7.5696061773        3.7757165440       -0.0031233250
Ti         9.4622660749       13.2380654200        4.8050217961
Ti         7.5690557240        7.5699681581       -0.0004229909
Ti         9.4624088953        9.4617605784        4.8079439874
Ti         7.5694525968        9.4630024307        2.4075613401
Ti         9.4625243876        7.5698576884        7.2075073340
O         0.0012521596        0.0013276322        1.9927539510
O         1.8848858057        1.8878111462        6.8009703789
O         0.0015195727        1.8843733183        4.3971438792
O         1.8874579233        0.0011811764        9.2057615718
O         1.8835423888        0.0015062310        5.2177725492
O        -0.0001593960        1.8876861015        0.4108220180
O         1.8877225352        1.8835289596        2.8136640159
O         0.0017981948       -0.0003584124        7.6227445509
O         0.0010564584        3.7760935318        1.9897326372
O         1.8848826761       13.2368297102        6.8016468254
O        11.3511446446        1.8849532917        4.3967887316
O         5.6723550866        0.0015983671        9.2060023483
O         1.8840080538        3.7760259406        5.2192532505
O         0.0002340801       13.2371608620        0.4092102856
O         5.6720352955        1.8834300797        2.8124949852
O        11.3510304620        0.0004976305        7.6230012049
O         3.7759556277        0.0004711247        7.6252806245
O        13.2368204935        1.8832195345        2.8131989552
O        13.2369031423        0.0017445448        9.2051623689
O         3.7761290985        1.8851165524        4.3947072479
O         1.8850254274        5.6721186542        6.8022792026
O         0.0010356925       11.3512075772        1.9918050409
O         0.0001977016        5.6723308203        0.4087341763
O         1.8837983205       11.3511496120        5.2170815560
O         0.0011669636        7.5667160014        1.9937008335
O         1.8850530331        9.4628275975        6.7987620934
O         7.5668211998        1.8845311821        4.3979268807
O         9.4626072085        0.0013702910        9.2034709901
O         1.8837678540        7.5667167117        5.2169569413
O        -0.0000222050        9.4624418258        0.4128747114
O         9.4628183728        1.8837746333        2.8157982339
O         7.5668618760       -0.0001651340        7.6217843505
O         3.7695421949        0.0016282128        1.9922444599
O        13.2386478053        1.8875916984        6.8013837080
O         0.0017574144        5.6566365154        4.3966453177
O         1.8876602385       11.3555207807        9.2053979190
O        13.2374428112        0.0017692941        5.2173064230
O         3.7684605305        1.8880453807        0.4092055155
O         1.8877476546        5.6548658567        2.8136711576
O         0.0017712466       11.3542881437        7.6227837154
O        11.3538268407        1.8879117444        0.4094107200
O         5.6554122879        0.0017881647        5.2172535042
O         5.6567279583        1.8877219107        6.8013264299
O        11.3547576220        0.0017756193        1.9921817980
O         1.8878705992        3.7700059586        9.2054646305
O         0.0017893968       13.2385573757        4.3968888117
O         0.0017052226        3.7688774308        7.6225418827
O         1.8875243667       13.2368920872        2.8136012246
O         3.7700653967        3.7756569866        1.9910740827
O        13.2387244873       13.2369301050        6.8008158631
O        11.3507392796        5.6562859371        4.3968339516
O         5.6720009269       11.3548714383        9.2066995627
O        13.2371427020        3.7757909177        5.2202941525
O         3.7681010732       13.2368771678        0.4101690684
O         5.6721492778        5.6558184193        2.8128587415
O        11.3510476795       11.3535195843        7.6225133807
O        11.3535582043       13.2367286061        0.4106034434
O         5.6556850593        3.7759864619        5.2200382659
O         3.7759926113       11.3534135783        7.6248029902
O        13.2369794537        5.6550700958        2.8138112259
O         5.6564188169       13.2369256138        6.8008795304
O        11.3547246027        3.7756386055        1.9909293165
O        13.2366996714       11.3552015946        9.2059098302
O         3.7759968574        5.6565766785        4.3949480119
O         5.6571050581        5.6722676658        6.8018632674
O        11.3549370318       11.3507958301        1.9930763916
O        13.2366664661        3.7696991227        9.2061534778
O         3.7759642463       13.2379384458        4.3949011108
O        11.3534864346        5.6719955457        0.4099101307
O         5.6553647601       11.3507260209        5.2179993379
O         3.7759809525        3.7686409459        7.6243045517
O        13.2370081354       13.2372204586        2.8139089473
O        13.2372724160       11.3508389605        5.2180863304
O         3.7687150734        5.6719053273        0.4096968531
O         5.6721768621       13.2372990953        2.8130273312
O        11.3511244877        3.7683168183        7.6222795376
O         3.7698833583       11.3507793483        1.9929128933
O        13.2384387644        5.6723506494        6.8016324188
O        11.3508284649       13.2380610707        4.3969562661
O         5.6719605875        3.7699194710        9.2067761669
O         3.7698579121        7.5672649841        1.9931599297
O        13.2385933835        9.4627402710        6.7991638370
O         7.5670667130        5.6571615282        4.3977226804
O         9.4629021255       11.3552886074        9.2031712904
O        13.2375212928        7.5669742298        5.2164242745
O         3.7688678426        9.4628612828        0.4110551872
O         9.4625676951        5.6552899416        2.8154670443
O         7.5668232458       11.3541184780        7.6219856033
O        11.3537045156        9.4630202003        0.4115497457
O         5.6561240261        7.5669875697        5.2162637851
O         5.6569499151        9.4626099992        6.7993483356
O        11.3545551293        7.5670813548        1.9930807649
O         9.4627850054        3.7703993664        9.2033663049
O         7.5670372194       13.2384789972        4.3976254480
O         7.5669241335        3.7694204583        7.6215593512
O         9.4627097063       13.2368471642        2.8157686564
O         7.5834892241        0.0013352147        1.9929186896
O         9.4700729686        1.8877333245        6.8011533513
O         0.0014496764        9.4697765848        4.3975158035
O         1.8876408503        7.5834600527        9.2056418591
O         9.4688378234        0.0015284089        5.2176498744
O         7.5818654822        1.8877493288        0.4109257214
O         1.8877880576        9.4686913907        2.8137104393
O         0.0017408800        7.5821600992        7.6226052621
O         7.5827907646        3.7762606529        1.9901446180
O         9.4702405981       13.2368389864        6.8017905804
O        11.3509917111        9.4701483104        4.3969731044
O         5.6722239316        7.5833209985        9.2061405437
O         9.4686914110        3.7761002416        5.2191010183
O         7.5820591774       13.2371937299        0.4094467180
O         5.6719102277        9.4681418505        2.8124517164
O        11.3509431310        7.5826200687        7.6228752038
O         3.7760821114        7.5823424217        7.6248422303
O        13.2369032381        9.4683979420        2.8132061115
O        13.2369137979        7.5839573178        9.2052253564
O         3.7761718550        9.4698370017        4.3951472800
O         9.4697554066        5.6720530263        6.8026088309
O         7.5832197001       11.3510032716        1.9919255203
O         7.5816901148        5.6722859413        0.4086243277
O         9.4690432379       11.3510710513        5.2170014600
O         7.5828516090        7.5667445815        1.9939573010
O         9.4697672484        9.4628747915        6.7990926995
O         7.5669035386        9.4692793123        4.3982502623
O         9.4624812661        7.5831241998        9.2036926174
O         9.4685172473        7.5667128353        5.2168124771
O         7.5815626122        9.4624213044        0.4127291705
O         9.4627811091        9.4685228819        2.8155982490
O         7.5669354610        7.5814661801        7.6215196439
     192
 i =        7, E =     -5781.9234176501
Ti        -0.0115394800        0.0757127011       -0.0177135823
Ti         1.9057133018        1.8786471028        4.8266474119
Ti         0.0300742581        1.9382178585        2.4752360685
Ti         1.9174223541        0.0466946378        7.1256183423
Ti         0.0361824588        3.7616790710       -0.0256659838
Ti         1.9024420274       13.2535747666        4.8177970684
Ti        11.3148692951        1.8622505990        2.4796524350
Ti         5.6622398788       -0.0099595560        7.1505595104
Ti         1.8850590966        3.7844674402        7.1453086734
Ti        -0.0031858483       13.1874196740        2.4875891795
Ti         5.6802939062        1.9251012246        4.8207851143
Ti        11.3421628288       -0.0418309657       -0.0136269551
Ti         3.8388479048       -0.0281972231       -0.0177268330
Ti        13.2204404585        1.9272154982        4.8222015241
Ti        13.2025767625       -0.0117613835        7.1425420722
Ti         3.7812784590        1.8616606065        2.4812546095
Ti         1.8956257048        5.6976024956        4.8357303751
Ti         0.0235166200       11.2604162982       -0.0139327088
Ti        -0.0007450091        5.6539863235        2.4648833586
Ti         1.8871737437       11.3042826671        7.1438470645
Ti        -0.0025413932        7.5869553795       -0.0182662147
Ti         1.9093016392        9.4068058024        4.8201696717
Ti         7.5686480862        1.9395803603        2.4705765573
Ti         9.4471821814        0.0367173729        7.1432482742
Ti         1.9121369867        7.5727281298        7.1403953069
Ti         0.0373076399        9.4806935138        2.4653928476
Ti         9.4444465319        1.8801067053        4.8292843724
Ti         7.5463128278        0.0725740206       -0.0306227498
Ti         3.7982253997        3.8622214170       -0.0338094192
Ti        13.2262109193       13.1982753367        4.8229779994
Ti        11.3511419144        5.7221866140        2.4562164042
Ti         5.6918083422       11.3550657813        7.1444364147
Ti        13.2412535670        3.8331563472        7.1412150574
Ti         3.8123814275       13.2516914212        2.4749155071
Ti         5.6885252185        5.6569809540        4.8251982569
Ti        11.3127329562       11.3762632351       -0.0203629854
Ti        11.3529522651       13.2640085398        2.4644317964
Ti         5.6870980044        3.8223323490        7.1565714462
Ti         3.7945874522       11.3737894433       -0.0165952151
Ti        13.2257831705        5.6506752183        4.8354965597
Ti         5.6906898885       13.2001210833        4.8183871946
Ti        11.3090785136        3.8551291794       -0.0262198919
Ti        13.2335222686       11.3561402884        7.1454430692
Ti         3.8150579542        5.7265041381        2.4506899456
Ti         3.8240896666        7.4845611923       -0.0133087283
Ti        13.2105956118        9.4580568183        4.8268052734
Ti         7.5323504411        5.6555181127        2.4664031396
Ti         9.4191007079       11.3113901679        7.1519574794
Ti        13.2107558611        7.5331531749        7.1483684783
Ti         3.7830351564        9.4152508632        2.4795885357
Ti         9.4376675223        5.6995402207        4.8356287100
Ti         7.5802052361       11.2750176708       -0.0232096148
Ti        11.3176165467        9.4087910377        2.4748919993
Ti         5.6632454658        7.5337937979        7.1558547727
Ti         5.6844766777        9.4609170600        4.8150290886
Ti        11.3466674022        7.4973908344       -0.0137869937
Ti         9.4223167669        3.7764291466        7.1501535904
Ti         7.5326187421       13.1854811713        2.4870370001
Ti         7.5670647869        3.7567119668       -0.0270460238
Ti         9.4330050713       13.2483155612        4.8307339483
Ti         7.5392228226        7.5859712603       -0.0208343865
Ti         9.4410174840        9.4095591545        4.8291228704
Ti         7.5602034538        9.4763313280        2.4745351998
Ti         9.4531035870        7.5794339876        7.1428563626
O         0.0164961238       -0.0133350000        2.0010398508
O         1.8854720145        1.8990369615        6.8473489078
O        -0.0015155482        1.8654709292        4.4316221573
O         1.8824585836        0.0160578521        9.3334639050
O         1.8246830821       -0.0016657575        5.1783210599
O        -0.0502581440        1.8949750272        0.3604119518
O         1.8958704850        1.8171120679        2.7470504366
O         0.0116278236       -0.0594840415        7.6392040626
O         0.0067968681        3.7787087785        1.9487710675
O         1.8876935842       13.2287203862        6.8782233415
O        11.3515754158        1.8890757511        4.4134460784
O         5.6821070168        0.0356267002        9.2772463036
O         1.8373781254        3.7785099191        5.1591763363
O        -0.0344461922       13.2459631358        0.2797021541
O         5.6674097818        1.8087532613        2.7510214190
O        11.3491663886       -0.0210725558        7.6500927069
O         3.7719804237       -0.0232166283        7.6679722279
O        13.2284561690        1.8049669686        2.7271350749
O        13.2317449148        0.0395097409        9.3007655339
O         3.7827495476        1.8911020866        4.4037308122
O         1.8881991984        5.6718779117        6.8501300070
O         0.0072679412       11.3565276046        1.9549777538
O        -0.0339581747        5.6817991533        0.3216463868
O         1.8334256442       11.3521589277        5.1446584847
O         0.0150266101        7.5541035808        1.9898642964
O         1.8883684804        9.4615896127        6.8259923843
O         7.5582623792        1.8664340619        4.4127472728
O         9.4499778976        0.0235110507        9.3066544315
O         1.8283824958        7.5537654422        5.1959008175
O        -0.0457863623        9.4435008975        0.3747297746
O         9.4614746770        1.8239028251        2.7653510160
O         7.5635895281       -0.0495327903        7.6498307108
O         3.7592806470        0.0034896657        1.9588167036
O        13.2897101573        1.8878959787        6.8895321487
O         0.0088256808        5.6891360950        4.4295778581
O         1.8932936661       11.4442984879        9.2915695180
O        13.2299919290        0.0099911759        5.1332410849
O         3.6967873662        1.9096621886        0.2993689182
O         1.8876603628        5.5861019436        2.7241559814
O         0.0107319246       11.3778881576        7.6616429833
O        11.3609687946        1.9061944786        0.3118950192
O         5.6271762260        0.0104666967        5.1309023149
O         5.6808905303        1.8862215151        6.8874823851
O        11.4033580453        0.0100822240        1.9527984919
O         1.9009124397        3.7751266317        9.2953840973
O         0.0107738182       13.2838965955        4.4412772697
O         0.0075359630        3.7255831500        7.6461636130
O         1.8852803187       13.2033961926        2.7225404631
O         3.7712236968        3.7559230944        1.9928644657
O        13.2920743756       13.2338761757        6.8607776284
O        11.3410833918        5.6627513616        4.4399756250
O         5.6657280536       11.4200460614        9.2936110392
O        13.2191473636        3.7656944680        5.1868511580
O         3.6860923504       13.2314538871        0.3518437229
O         5.6714513490        5.6088944134        2.7599439798
O        11.3495652177       11.3448981750        7.6493493496
O        11.3491596281       13.2246619704        0.3741572080
O         5.6184301258        3.7677560090        5.1838051005
O         3.7753228071       11.3448976180        7.6679950953
O        13.2371461220        5.6069271278        2.7339169830
O         5.6768250447       13.2340582324        6.8635344831
O        11.4081672628        3.7566424894        1.9847479110
O        13.2216806231       11.4305180772        9.3159602208
O         3.7681919377        5.6643885014        4.4301449691
O         5.6750680589        5.6763819821        6.8389800150
O        11.4131556806       11.3347166427        1.9962138073
O        13.2202965198        3.7666812128        9.3268985825
O         3.7731732241       13.2583440350        4.4371627704
O        11.3506291905        5.6665189248        0.4005697936
O         5.6163110188       11.3407478398        5.1665056366
O         3.7733933923        3.7025442088        7.6418192510
O        13.2382181032       13.2182929403        2.7387627527
O        13.2232935549       11.3381075470        5.1712061691
O         3.7014170467        5.6634683337        0.3909513304
O         5.6736880620       13.2201104115        2.7575983987
O        11.3546893635        3.6954394354        7.6321078458
O         3.7707285250       11.3359998172        1.9925966386
O        13.2779270602        5.6818896505        6.8381751575
O        11.3375707230       13.2628480722        4.4449181353
O         5.6637934417        3.7628892015        9.2954173505
O         3.7593325533        7.5803865545        1.9472317025
O        13.2884609126        9.4586382795        6.8681504304
O         7.5732617429        5.6798256472        4.4107663210
O         9.4628074244       11.4379530632        9.2673589015
O        13.2317736103        7.5683037991        5.1511134512
O         3.7086441287        9.4658336980        0.3069205421
O         9.4580397753        5.5956936192        2.7355558172
O         7.5600674014       11.3767103640        7.6768184587
O        11.3602318681        9.4708973385        0.3301704656
O         5.6273787372        7.5705716760        5.1540757395
O         5.6808150071        9.4598675038        6.8681391717
O        11.4000157368        7.5725361922        1.9421631625
O         9.4602495947        3.7861376563        9.2757251138
O         7.5706896197       13.2785284613        4.4163513014
O         7.5641286300        3.7357453254        7.6545452353
O         9.4569911955       13.2028953179        2.7409391747
O         7.6162016811       -0.0127863485        2.0127747406
O         9.5356866223        1.8936891650        6.8596746911
O        -0.0044612503        9.5187933002        4.4522773091
O         1.8835960777        7.6309780180        9.3247035112
O         9.4715259094       -0.0010037952        5.1709530099
O         7.5477774884        1.8903184291        0.3675365141
O         1.8971105384        9.4670403986        2.7461802931
O         0.0086589944        7.5492070425        7.6300890850
O         7.6048905630        3.7803523181        1.9619155470
O         9.5404181232       13.2290809372        6.8868301806
O        11.3467695928        9.5377109023        4.4267079717
O         5.6746622719        7.6442242633        9.2726821360
O         9.4749376995        3.7799730981        5.1514762506
O         7.5452272264       13.2475831461        0.2949683499
O         5.6631860605        9.4506075015        2.7489081295
O        11.3515891653        7.5815987748        7.6406891394
O         3.7723380985        7.5801186095        7.6536498009
O        13.2321479745        9.4494692948        2.7257802453
O        13.2328129905        7.6428198235        9.3004684381
O         3.7831003094        9.5313763431        4.4258210929
O         9.5310732847        5.6690350337        6.8666944692
O         7.6129717320       11.3537307297        1.9655596790
O         7.5597555646        5.6786408796        0.3278983711
O         9.4836927696       11.3505836998        5.1379533652
O         7.6182582322        7.5562525511        1.9953966912
O         9.5283412130        9.4650554663        6.8422687826
O         7.5624279114        9.5083638249        4.4293791131
O         9.4513511973        7.6259242194        9.3065327747
O         9.4698669766        7.5524586681        5.1886174034
O         7.5442256316        9.4493186342        0.3779235665
O         9.4615823143        9.4656656641        2.7548620076
O         7.5678088860        7.5493924281        7.6439829232
     192
 i =        8, E =     -5782.2894509706
Ti        -0.0001251605        0.0063276588       -0.0011525056
Ti         1.8888790893        1.8877591784        4.8082207409
Ti         0.0020565927        1.8906248554        2.4052666274
Ti         1.8895487065        0.0027476346        7.2092505305
Ti         0.0024928650        3.7755434815        0.0018277048
Ti         1.8888599964       13.2386536840        4.8064894248
Ti        11.3490952354        1.8868138672        2.4067957988
Ti         5.6689431307        0.0001925628        7.2144859537
Ti         1.8879674684        3.7759957376        7.2069029339
Ti         0.0006279806       13.2353162000        2.4084104310
Ti         5.6697864727        1.8898836836        4.8038446988
Ti        11.3499225741       -0.0014629979       -0.0021718555
Ti         3.7791668913       -0.0009032968       -0.0038166091
Ti        13.2369983148        1.8899746877        4.8097374509
Ti        13.2359743912        0.0001837256        7.2081730182
Ti         3.7759904598        1.8869079069        2.4085278058
Ti         1.8884461205        5.6705667039        4.8128964528
Ti         0.0020129366       11.3442671654        0.0004744313
Ti         0.0006837245        5.6684545584        2.4005474992
Ti         1.8879880157       11.3485018277        7.2083890930
Ti         0.0005100048        7.5700623246        0.0047610654
Ti         1.8891708971        9.4603467172        4.8093770506
Ti         7.5697331557        1.8908258554        2.4106233531
Ti         9.4622968824        0.0023157908        7.2115815109
Ti         1.8893659201        7.5698449970        7.2045187761
Ti         0.0023441720        9.4639842985        2.4035154389
Ti         9.4622173115        1.8877078166        4.8069457061
Ti         7.5687267732        0.0042275107       -0.0070701565
Ti         3.7766484514        3.7798238847       -0.0015929290
Ti        13.2371563007       13.2360135552        4.8082686729
Ti        11.3506390344        5.6720101847        2.4017310497
Ti         5.6703231337       11.3507643792        7.2128640188
Ti        13.2379493945        3.7781913379        7.2055461520
Ti         3.7775797860       13.2386617711        2.4097171995
Ti         5.6701847011        5.6687204700        4.8081231194
Ti        11.3485295293       11.3519936488       -0.0007550741
Ti        11.3505347068       13.2392648207        2.4078218954
Ti         5.6701766699        3.7777903279        7.2118538198
Ti         3.7767263432       11.3518676734       -0.0022451541
Ti        13.2372688483        5.6684744832        4.8142862440
Ti         5.6703277047       13.2361182536        4.8022741461
Ti        11.3486667756        3.7794488288        0.0003953481
Ti        13.2375995478       11.3508788786        7.2070336604
Ti         3.7775508042        5.6721654676        2.4031053606
Ti         3.7780986898        7.5657904306        0.0019134752
Ti        13.2365850780        9.4628626853        4.8114866068
Ti         7.5682064730        5.6684967242        2.4061317369
Ti         9.4609726219       11.3488477507        7.2104724563
Ti        13.2364527004        7.5680977403        7.2029614075
Ti         3.7761773381        9.4605982034        2.4069297168
Ti         9.4617799835        5.6706195701        4.8115080645
Ti         7.5701483307       11.3467926010       -0.0052805846
Ti        11.3491338801        9.4603617849        2.4050585551
Ti         5.6690253619        7.5681799791        7.2090871826
Ti         5.6699026193        9.4629325368        4.8051187968
Ti        11.3504397017        7.5662581037        0.0034151127
Ti         9.4609846624        3.7756666474        7.2086604879
Ti         7.5681618136       13.2352648882        2.4127631247
Ti         7.5695825370        3.7749276946       -0.0037717477
Ti         9.4617092317       13.2384077124        4.8055248054
Ti         7.5683327286        7.5705807002       -0.0008255817
Ti         9.4620561905        9.4606401146        4.8083187581
Ti         7.5693781881        9.4635523538        2.4092708457
Ti         9.4624526889        7.5701096704        7.2060222866
O         0.0017859876        0.0002978910        1.9927177093
O         1.8853676658        1.8874869562        6.8019146687
O         0.0013766822        1.8849148749        4.3975324313
O         1.8866266724        0.0012051366        9.2120834804
O         1.8817738694        0.0015394099        5.2175193450
O        -0.0019525210        1.8886349938        0.4080574567
O         1.8875847125        1.8809223501        2.8113258470
O         0.0021580858       -0.0023059703        7.6232234987
O         0.0015609459        3.7756811171        1.9893158368
O         1.8856956178       13.2366384906        6.8033570392
O        11.3513420958        1.8853324404        4.3967185561
O         5.6724668832        0.0032033840        9.2096372974
O         1.8821962625        3.7758323879        5.2179161401
O        -0.0012880232       13.2376134562        0.4025245538
O         5.6718903812        1.8812071280        2.8102387833
O        11.3514560790       -0.0004285093        7.6234272250
O         3.7755639895       -0.0003944360        7.6261409773
O        13.2368493676        1.8809413664        2.8108565048
O        13.2367660123        0.0023208748        9.2093741123
O         3.7758977674        1.8855343384        4.3946688929
O         1.8858087677        5.6719205984        6.8034557976
O         0.0014822521       11.3518057038        1.9905875196