 DBCSR| CPU Multiplication driver                                           XSMM (U)
 DBCSR| Multrec recursion limit                                              512 (U)
 DBCSR| Multiplication stack size                                           1000 (D)
 DBCSR| Maximum elements for images                                    UNLIMITED (U)
 DBCSR| Multiplicative factor virtual images                                   1 (U)
 DBCSR| Use multiplication densification                                       T (D)
 DBCSR| Multiplication size stacks                                             3 (U)
 DBCSR| Use memory pool for CPU allocation                                     F (U)
 DBCSR| Number of 3D layers                                               SINGLE (U)
 DBCSR| Use MPI memory allocation                                              F (U)
 DBCSR| Use RMA algorithm                                                      F (U)
 DBCSR| Use Communication thread                                               T (U)
 DBCSR| Communication thread load                                             87 (D)
 DBCSR| MPI: My process id                                                     0
 DBCSR| MPI: Number of processes                                             128
 DBCSR| OMP: Current number of threads                                         1
 DBCSR| OMP: Max number of threads                                             1
 DBCSR| Split modifier for TAS multiplication algorithm                  1.0E+00 (U)


  **** **** ******  **  PROGRAM STARTED AT               2025-06-22 05:14:16.667
 ***** ** ***  *** **   PROGRAM STARTED ON                             nid004176
 **    ****   ******    PROGRAM STARTED BY                                cahart
 ***** **    ** ** **   PROGRAM PROCESS ID                                149845
  **** **  *******  **  PROGRAM STARTED IN /mnt/lustre/a2fs-work2/work/e05/e05/c
                                           ahart/postdoc2/work/group/tio2/anatas
                                           e/cell-441/geo-opt/mp-390/neutral-fro
                                           m-hole/pbe-u-o/u-2.2

 CP2K| version string:                                       CP2K version 2024.3
 CP2K| source code revision number:                                  git:6712648
 CP2K| cp2kflags: omp libint fftw3 libxc libgrpp elpa parallel scalapack cosma x
 CP2K|            smm plumed2 spglib mkl sirius libvori libbqb libvdwxc hdf5
 CP2K| is freely available from                            https://www.cp2k.org/
 CP2K| Program compiled at                       Thu 12 Sep 2024 10:20:47 AM BST
 CP2K| Program compiled on                                                  ln04
 CP2K| Program compiled for                                                local
 CP2K| Data directory path    /mnt/lustre/a2fs-work1/work/y07/shared/apps/core/c
 CP2K| Input file name                                                 input.inp

 GLOBAL| Force Environment number                                              1
 GLOBAL| Basis set file name                                        BASIS_MOLOPT
 GLOBAL| Potential file name                                      GTH_POTENTIALS
 GLOBAL| MM Potential file name                                     MM_POTENTIAL
 GLOBAL| Coordinate file name                                         system.xyz
 GLOBAL| Method name                                                        CP2K
 GLOBAL| Project name                                                       tio2
 GLOBAL| Run type                                                         ENERGY
 GLOBAL| FFT library                                                       FFTW3
 GLOBAL| Diagonalization library                                            ELPA
 GLOBAL| DGEMM library                                                      BLAS
 GLOBAL| Minimum number of eigenvectors for ELPA usage                        16
 GLOBAL| Orthonormality check for eigenvectors                          DISABLED
 GLOBAL| Matrix multiplication library                                     COSMA
 GLOBAL| All-to-all communication in single precision                          F
 GLOBAL| FFTs using library dependent lengths                                  F
 GLOBAL| Grid backend                                                       AUTO
 GLOBAL| Global print level                                               MEDIUM
 GLOBAL| MPI I/O enabled                                                       T
 GLOBAL| Total number of message passing processes                           128
 GLOBAL| Number of threads for this process                                    1
 GLOBAL| This output is from process                                           0
 GLOBAL| Stack size for threads created by OpenMP (OMP_STACKSIZE)        default
 GLOBAL| CPU model name                          AMD EPYC 7742 64-Core Processor
 GLOBAL| CPUID                                                              1002

 MEMORY| system memory details [Kb]
 MEMORY|                        rank 0           min           max       average
 MEMORY| MemTotal            263341976     263341976     263341976     263341976
 MEMORY| MemFree             234835072     234835072     234835072     234835072
 MEMORY| Buffers                     0             0             0             0
 MEMORY| Cached                1576428       1576428       1576428       1576428
 MEMORY| Slab                  6052980       6052972       6052980       6052979
 MEMORY| SReclaimable           907072        907072        907072        907072
 MEMORY| MemLikelyFree       237318572     237318572     237318572     237318572


 *** Fundamental physical constants (SI units) ***

 *** Literature: B. J. Mohr and B. N. Taylor,
 ***             CODATA recommended values of the fundamental physical
 ***             constants: 2006, Web Version 5.1
 ***             http://physics.nist.gov/constants

 Speed of light in vacuum [m/s]                             2.99792458000000E+08
 Magnetic constant or permeability of vacuum [N/A**2]       1.25663706143592E-06
 Electric constant or permittivity of vacuum [F/m]          8.85418781762039E-12
 Planck constant (h) [J*s]                                  6.62606896000000E-34
 Planck constant (h-bar) [J*s]                              1.05457162825177E-34
 Elementary charge [C]                                      1.60217648700000E-19
 Electron mass [kg]                                         9.10938215000000E-31
 Electron g factor [ ]                                     -2.00231930436220E+00
 Proton mass [kg]                                           1.67262163700000E-27
 Fine-structure constant                                    7.29735253760000E-03
 Rydberg constant [1/m]                                     1.09737315685270E+07
 Avogadro constant [1/mol]                                  6.02214179000000E+23
 Boltzmann constant [J/K]                                   1.38065040000000E-23
 Atomic mass unit [kg]                                      1.66053878200000E-27
 Bohr radius [m]                                            5.29177208590000E-11

 *** Conversion factors ***

 [u] -> [a.u.]                                              1.82288848426455E+03
 [Angstrom] -> [Bohr] = [a.u.]                              1.88972613288564E+00
 [a.u.] = [Bohr] -> [Angstrom]                              5.29177208590000E-01
 [a.u.] -> [s]                                              2.41888432650478E-17
 [a.u.] -> [fs]                                             2.41888432650478E-02
 [a.u.] -> [J]                                              4.35974393937059E-18
 [a.u.] -> [N]                                              8.23872205491840E-08
 [a.u.] -> [K]                                              3.15774647902944E+05
 [a.u.] -> [kJ/mol]                                         2.62549961709828E+03
 [a.u.] -> [kcal/mol]                                       6.27509468713739E+02
 [a.u.] -> [Pa]                                             2.94210107994716E+13
 [a.u.] -> [bar]                                            2.94210107994716E+08
 [a.u.] -> [atm]                                            2.90362800883016E+08
 [a.u.] -> [eV]                                             2.72113838565563E+01
 [a.u.] -> [Hz]                                             6.57968392072181E+15
 [a.u.] -> [1/cm] (wave numbers)                            2.19474631370540E+05
 [a.u./Bohr**2] -> [1/cm]                                   5.14048714338585E+03
 

 CELL_TOP| Volume [angstrom^3]:                                      2198.132028
 CELL_TOP| Vector a [angstrom    15.120     0.000     0.000   |a| =    15.120000
 CELL_TOP| Vector b [angstrom     0.000    15.120     0.000   |b| =    15.120000
 CELL_TOP| Vector c [angstrom     0.000     0.000     9.615   |c| =     9.615020
 CELL_TOP| Angle (b,c), alpha [degree]:                                90.000000
 CELL_TOP| Angle (a,c), beta  [degree]:                                90.000000
 CELL_TOP| Angle (a,b), gamma [degree]:                                90.000000
 CELL_TOP| Requested initial symmetry:                       MONOCLINIC_GAMMA_AB
 CELL_TOP| Numerically orthorhombic:                                         YES
 CELL_TOP| Periodicity                                                       XYZ

 *** WARNING in atoms_input.F:123 :: Overwriting coordinates. Active    ***
 *** coordinates read from &COORD section. Active coordinates READ from ***
 *** &COORD section                                                     ***


 GENERATE|  Preliminary Number of Bonds generated:                             0
 GENERATE|  Achieved consistency in connectivity generation.

 CELL| Volume [angstrom^3]:                                          2198.132028
 CELL| Vector a [angstrom]:      15.120     0.000     0.000   |a| =    15.120000
 CELL| Vector b [angstrom]:       0.000    15.120     0.000   |b| =    15.120000
 CELL| Vector c [angstrom]:       0.000     0.000     9.615   |c| =     9.615020
 CELL| Angle (b,c), alpha [degree]:                                    90.000000
 CELL| Angle (a,c), beta  [degree]:                                    90.000000
 CELL| Angle (a,b), gamma [degree]:                                    90.000000
 CELL| Requested initial symmetry:                           MONOCLINIC_GAMMA_AB
 CELL| Numerically orthorhombic:                                             YES
 CELL| Periodicity                                                           XYZ

 CELL_REF| Volume [angstrom^3]:                                      2198.132028
 CELL_REF| Vector a [angstrom    15.120     0.000     0.000   |a| =    15.120000
 CELL_REF| Vector b [angstrom     0.000    15.120     0.000   |b| =    15.120000
 CELL_REF| Vector c [angstrom     0.000     0.000     9.615   |c| =     9.615020
 CELL_REF| Angle (b,c), alpha [degree]:                                90.000000
 CELL_REF| Angle (a,c), beta  [degree]:                                90.000000
 CELL_REF| Angle (a,b), gamma [degree]:                                90.000000
 CELL_REF| Requested initial symmetry:                       MONOCLINIC_GAMMA_AB
 CELL_REF| Numerically orthorhombic:                                         YES
 CELL_REF| Periodicity                                                       XYZ

 *******************************************************************************
 *******************************************************************************
 **                                                                           **
 **     #####                         ##              ##                      **
 **    ##   ##            ##          ##              ##                      **
 **   ##     ##                       ##            ######                    **
 **   ##     ##  ##   ##  ##   #####  ##  ##   ####   ##    #####    #####    **
 **   ##     ##  ##   ##  ##  ##      ## ##   ##      ##   ##   ##  ##   ##   **
 **   ##  ## ##  ##   ##  ##  ##      ####     ###    ##   ######   ######    **
 **    ##  ###   ##   ##  ##  ##      ## ##      ##   ##   ##       ##        **
 **     #######   #####   ##   #####  ##  ##  ####    ##    #####   ##        **
 **           ##                                                    ##        **
 **                                                                           **
 **                                                ... make the atoms dance   **
 **                                                                           **
 **            Copyright (C) by CP2K developers group (2000-2024)             **
 **                      J. Chem. Phys. 152, 194103 (2020)                    **
 **                                                                           **
 *******************************************************************************

 DFT| Spin unrestricted (spin-polarized) Kohn-Sham calculation               UKS
 DFT| Multiplicity                                                             1
 DFT| Number of spin states                                                    2
 DFT| Charge                                                                   0
 DFT| Self-interaction correction (SIC)                                       NO
 DFT| Cutoffs: density                                              1.000000E-10
 DFT|          gradient                                             1.000000E-10
 DFT|          tau                                                  1.000000E-10
 DFT|          cutoff_smoothing_range                               0.000000E+00
 DFT| XC density smoothing                                                  NONE
 DFT| XC derivatives                                                          PW

 DFT+U| Method                                                          MULLIKEN
 DFT+U| Check atomic kind information for details

 FUNCTIONAL| PBE:
 FUNCTIONAL| J.P.Perdew, K.Burke, M.Ernzerhof, Phys. Rev. Letter, vol. 77, n 18,
 FUNCTIONAL|  pp. 3865-3868, (1996) {spin polarized}                            


 QS| Method:                                                                 GPW
 QS| Density plane wave grid type                        NON-SPHERICAL FULLSPACE
 QS| Number of grid levels:                                                    4
 QS| Density cutoff [a.u.]:                                                300.0
 QS| Multi grid cutoff [a.u.]: 1) grid level                               300.0
 QS|                           2) grid level                               100.0
 QS|                           3) grid level                                33.3
 QS|                           4) grid level                                11.1
 QS| Grid level progression factor:                                          3.0
 QS| Relative density cutoff [a.u.]:                                        20.0
 QS| Interaction thresholds: eps_pgf_orb:                                1.0E-06
 QS|                         eps_filter_matrix:                          0.0E+00
 QS|                         eps_core_charge:                            1.0E-14
 QS|                         eps_rho_gspace:                             1.0E-12
 QS|                         eps_rho_rspace:                             1.0E-12
 QS|                         eps_gvg_rspace:                             1.0E-06
 QS|                         eps_ppl:                                    1.0E-02
 QS|                         eps_ppnl:                                   1.0E-08


 ATOMIC KIND INFORMATION

  1. Atomic kind: Ti                                    Number of atoms:      64

     Orbital Basis Set                                    DZVP-MOLOPT-SR-GTH-q12

       Number of orbital shell sets:                                           1
       Number of orbital shells:                                               8
       Number of primitive Cartesian functions:                                6
       Number of Cartesian basis functions:                                   31
       Number of spherical basis functions:                                   26
       Norm type:                                                              2

       Normalised Cartesian orbitals:

                        Set   Shell   Orbital            Exponent    Coefficient

                          1       1    2s                7.884570       0.015554
                                                         3.894698       0.963603
                                                         1.513589      -0.631435
                                                         0.596768      -0.343022
                                                         0.222222      -0.006534
                                                         0.077078       0.007652

                          1       2    3s                7.884570      -0.009340
                                                         3.894698       0.212624
                                                         1.513589      -0.258368
                                                         0.596768      -0.226206
                                                         0.222222       0.039438
                                                         0.077078       0.107179

                          1       3    4s                7.884570       0.276563
                                                         3.894698       0.105452
                                                         1.513589       0.085149
                                                         0.596768       0.882541
                                                         0.222222      -0.696223
                                                         0.077078       0.156638

                          1       4    3px               7.884570      -2.034794
                                                         3.894698       0.782008
                                                         1.513589       1.253903
                                                         0.596768       0.347823
                                                         0.222222       0.016778
                                                         0.077078      -0.000433
                          1       4    3py               7.884570      -2.034794
                                                         3.894698       0.782008
                                                         1.513589       1.253903
                                                         0.596768       0.347823
                                                         0.222222       0.016778
                                                         0.077078      -0.000433
                          1       4    3pz               7.884570      -2.034794
                                                         3.894698       0.782008
                                                         1.513589       1.253903
                                                         0.596768       0.347823
                                                         0.222222       0.016778
                                                         0.077078      -0.000433

                          1       5    4px               7.884570       0.376572
                                                         3.894698      -0.182875
                                                         1.513589      -0.474776
                                                         0.596768      -0.081757
                                                         0.222222       0.064432
                                                         0.077078       0.047279
                          1       5    4py               7.884570       0.376572
                                                         3.894698      -0.182875
                                                         1.513589      -0.474776
                                                         0.596768      -0.081757
                                                         0.222222       0.064432
                                                         0.077078       0.047279
                          1       5    4pz               7.884570       0.376572
                                                         3.894698      -0.182875
                                                         1.513589      -0.474776
                                                         0.596768      -0.081757
                                                         0.222222       0.064432
                                                         0.077078       0.047279

                          1       6    4dx2              7.884570       3.047350
                                                         3.894698       3.289529
                                                         1.513589       1.060616
                                                         0.596768       0.249930
                                                         0.222222       0.038806
                                                         0.077078       0.002319
                          1       6    4dxy              7.884570       5.278165
                                                         3.894698       5.697631
                                                         1.513589       1.837041
                                                         0.596768       0.432892
                                                         0.222222       0.067214
                                                         0.077078       0.004017
                          1       6    4dxz              7.884570       5.278165
                                                         3.894698       5.697631
                                                         1.513589       1.837041
                                                         0.596768       0.432892
                                                         0.222222       0.067214
                                                         0.077078       0.004017
                          1       6    4dy2              7.884570       3.047350
                                                         3.894698       3.289529
                                                         1.513589       1.060616
                                                         0.596768       0.249930
                                                         0.222222       0.038806
                                                         0.077078       0.002319
                          1       6    4dyz              7.884570       5.278165
                                                         3.894698       5.697631
                                                         1.513589       1.837041
                                                         0.596768       0.432892
                                                         0.222222       0.067214
                                                         0.077078       0.004017
                          1       6    4dz2              7.884570       3.047350
                                                         3.894698       3.289529
                                                         1.513589       1.060616
                                                         0.596768       0.249930
                                                         0.222222       0.038806
                                                         0.077078       0.002319

                          1       7    5dx2              7.884570      -2.119015
                                                         3.894698      -1.237751
                                                         1.513589      -0.746777
                                                         0.596768      -0.071514
                                                         0.222222       0.004086
                                                         0.077078       0.017595
                          1       7    5dxy              7.884570      -3.670241
                                                         3.894698      -2.143848
                                                         1.513589      -1.293455
                                                         0.596768      -0.123865
                                                         0.222222       0.007077
                                                         0.077078       0.030475
                          1       7    5dxz              7.884570      -3.670241
                                                         3.894698      -2.143848
                                                         1.513589      -1.293455
                                                         0.596768      -0.123865
                                                         0.222222       0.007077
                                                         0.077078       0.030475
                          1       7    5dy2              7.884570      -2.119015
                                                         3.894698      -1.237751
                                                         1.513589      -0.746777
                                                         0.596768      -0.071514
                                                         0.222222       0.004086
                                                         0.077078       0.017595
                          1       7    5dyz              7.884570      -3.670241
                                                         3.894698      -2.143848
                                                         1.513589      -1.293455
                                                         0.596768      -0.123865
                                                         0.222222       0.007077
                                                         0.077078       0.030475
                          1       7    5dz2              7.884570      -2.119015
                                                         3.894698      -1.237751
                                                         1.513589      -0.746777
                                                         0.596768      -0.071514
                                                         0.222222       0.004086
                                                         0.077078       0.017595

                          1       8    5fx3              7.884570      -0.342058
                                                         3.894698       0.375798
                                                         1.513589      -0.706469
                                                         0.596768      -0.229994
                                                         0.222222      -0.012723
                                                         0.077078       0.003932
                          1       8    5fx2y             7.884570      -0.764866
                                                         3.894698       0.840310
                                                         1.513589      -1.579712
                                                         0.596768      -0.514282
                                                         0.222222      -0.028450
                                                         0.077078       0.008792
                          1       8    5fx2z             7.884570      -0.764866
                                                         3.894698       0.840310
                                                         1.513589      -1.579712
                                                         0.596768      -0.514282
                                                         0.222222      -0.028450
                                                         0.077078       0.008792
                          1       8    5fxy2             7.884570      -0.764866
                                                         3.894698       0.840310
                                                         1.513589      -1.579712
                                                         0.596768      -0.514282
                                                         0.222222      -0.028450
                                                         0.077078       0.008792
                          1       8    5fxyz             7.884570      -1.324787
                                                         3.894698       1.455460
                                                         1.513589      -2.736142
                                                         0.596768      -0.890763
                                                         0.222222      -0.049276
                                                         0.077078       0.015229
                          1       8    5fxz2             7.884570      -0.764866
                                                         3.894698       0.840310
                                                         1.513589      -1.579712
                                                         0.596768      -0.514282
                                                         0.222222      -0.028450
                                                         0.077078       0.008792
                          1       8    5fy3              7.884570      -0.342058
                                                         3.894698       0.375798
                                                         1.513589      -0.706469
                                                         0.596768      -0.229994
                                                         0.222222      -0.012723
                                                         0.077078       0.003932
                          1       8    5fy2z             7.884570      -0.764866
                                                         3.894698       0.840310
                                                         1.513589      -1.579712
                                                         0.596768      -0.514282
                                                         0.222222      -0.028450
                                                         0.077078       0.008792
                          1       8    5fyz2             7.884570      -0.764866
                                                         3.894698       0.840310
                                                         1.513589      -1.579712
                                                         0.596768      -0.514282
                                                         0.222222      -0.028450
                                                         0.077078       0.008792
                          1       8    5fz3              7.884570      -0.342058
                                                         3.894698       0.375798
                                                         1.513589      -0.706469
                                                         0.596768      -0.229994
                                                         0.222222      -0.012723
                                                         0.077078       0.003932

       Atomic covalent radius [Angstrom]:                                  1.320

       Atomic van der Waals radius [Angstrom]:                             1.760

     GTH Potential information for                                   GTH-PBE-q12

       Description:                       Goedecker-Teter-Hutter pseudopotential
                                           Goedecker et al., PRB 54, 1703 (1996)
                                          Hartwigsen et al., PRB 58, 3641 (1998)
                                                      Krack, TCA 114, 145 (2005)

       Gaussian exponent of the core charge distribution:               3.462604
       Electronic configuration (s p d ...):                           4   6   2

       Parameters of the local part of the GTH pseudopotential:

                          rloc        C1          C2          C3          C4
                        0.380000    8.711442   -0.700287

       Parameters of the non-local part of the GTH pseudopotential:

                   l      r(l)      h(i,j,l)

                   0    0.337771    2.575264    3.692971
                                    3.692971   -4.767605
                   1    0.242531   -4.630541    8.870875
                                    8.870875  -10.496161
                   2    0.243317   -9.406653

  2. Atomic kind: O                                     Number of atoms:     128

     Orbital Basis Set                                     DZVP-MOLOPT-SR-GTH-q6

       Number of orbital shell sets:                                           1
       Number of orbital shells:                                               5
       Number of primitive Cartesian functions:                                5
       Number of Cartesian basis functions:                                   14
       Number of spherical basis functions:                                   13
       Norm type:                                                              2

       Normalised Cartesian orbitals:

                        Set   Shell   Orbital            Exponent    Coefficient

                          1       1    2s               10.389228       0.396646
                                                         3.849621       0.208811
                                                         1.388401      -0.301641
                                                         0.496955      -0.274061
                                                         0.162492      -0.033677

                          1       2    3s               10.389228       0.303673
                                                         3.849621       0.240943
                                                         1.388401      -0.313066
                                                         0.496955      -0.043055
                                                         0.162492       0.213991

                          1       3    3px              10.389228      -1.530415
                                                         3.849621      -1.371928
                                                         1.388401      -0.761951
                                                         0.496955      -0.253695
                                                         0.162492      -0.035541
                          1       3    3py              10.389228      -1.530415
                                                         3.849621      -1.371928
                                                         1.388401      -0.761951
                                                         0.496955      -0.253695
                                                         0.162492      -0.035541
                          1       3    3pz              10.389228      -1.530415
                                                         3.849621      -1.371928
                                                         1.388401      -0.761951
                                                         0.496955      -0.253695
                                                         0.162492      -0.035541

                          1       4    4px              10.389228      -0.565392
                                                         3.849621      -0.038231
                                                         1.388401      -0.382373
                                                         0.496955       0.179070
                                                         0.162492       0.122714
                          1       4    4py              10.389228      -0.565392
                                                         3.849621      -0.038231
                                                         1.388401      -0.382373
                                                         0.496955       0.179070
                                                         0.162492       0.122714
                          1       4    4pz              10.389228      -0.565392
                                                         3.849621      -0.038231
                                                         1.388401      -0.382373
                                                         0.496955       0.179070
                                                         0.162492       0.122714

                          1       5    4dx2             10.389228       1.867377
                                                         3.849621       0.670994
                                                         1.388401       1.353441
                                                         0.496955       0.273538
                                                         0.162492       0.006620
                          1       5    4dxy             10.389228       3.234392
                                                         3.849621       1.162195
                                                         1.388401       2.344229
                                                         0.496955       0.473781
                                                         0.162492       0.011466
                          1       5    4dxz             10.389228       3.234392
                                                         3.849621       1.162195
                                                         1.388401       2.344229
                                                         0.496955       0.473781
                                                         0.162492       0.011466
                          1       5    4dy2             10.389228       1.867377
                                                         3.849621       0.670994
                                                         1.388401       1.353441
                                                         0.496955       0.273538
                                                         0.162492       0.006620
                          1       5    4dyz             10.389228       3.234392
                                                         3.849621       1.162195
                                                         1.388401       2.344229
                                                         0.496955       0.473781
                                                         0.162492       0.011466
                          1       5    4dz2             10.389228       1.867377
                                                         3.849621       0.670994
                                                         1.388401       1.353441
                                                         0.496955       0.273538
                                                         0.162492       0.006620

       Atomic covalent radius [Angstrom]:                                  0.730

       Atomic van der Waals radius [Angstrom]:                             1.520

     GTH Potential information for                                    GTH-PBE-q6

       Description:                       Goedecker-Teter-Hutter pseudopotential
                                           Goedecker et al., PRB 54, 1703 (1996)
                                          Hartwigsen et al., PRB 58, 3641 (1998)
                                                      Krack, TCA 114, 145 (2005)

       Gaussian exponent of the core charge distribution:               8.360253
       Electronic configuration (s p d ...):                               2   4

       Parameters of the local part of the GTH pseudopotential:

                          rloc        C1          C2          C3          C4
                        0.244554  -16.667215    2.487311

       Parameters of the non-local part of the GTH pseudopotential:

                   l      r(l)      h(i,j,l)

                   0    0.220956   18.337458
                   1    0.211332

     A DFT+U correction is applied to atoms of this atomic kind:
       Angular quantum momentum number L:                                      1
       U(eff) = (U - J) value in [eV]:                                     2.200


 MOLECULE KIND INFORMATION


 All atoms are their own molecule, skipping detailed information


 TOTAL NUMBERS AND MAXIMUM NUMBERS

  Total number of            - Atomic kinds:                                   2
                             - Atoms:                                        192
                             - Shell sets:                                   192
                             - Shells:                                      1152
                             - Primitive Cartesian functions:               1024
                             - Cartesian basis functions:                   3776
                             - Spherical basis functions:                   3328

  Maximum angular momentum of- Orbital basis functions:                        3
                             - Local part of the GTH pseudopotential:          2
                             - Non-local part of the GTH pseudopotential:      3


 MODULE QUICKSTEP: ATOMIC COORDINATES IN ANGSTROM

   Atom Kind Element         X             Y             Z       Z(eff)     Mass
      1    1 Ti   22     -0.007574      0.062814     -0.008919  12.0000  47.8670
      2    1 Ti   22      1.895171      1.894238      4.808127  12.0000  47.8670
      3    1 Ti   22     -0.004478      1.911172      2.436022  12.0000  47.8670
      4    1 Ti   22      1.885109      0.010719      7.212972  12.0000  47.8670
      5    1 Ti   22     -0.003840      3.766507     -0.008735  12.0000  47.8670
      6    1 Ti   22      1.895303     13.246720      4.814934  12.0000  47.8670
      7    1 Ti   22     11.327583      1.906943      2.402623  12.0000  47.8670
      8    1 Ti   22      5.656999      0.004302      7.211188  12.0000  47.8670
      9    1 Ti   22      1.887404      3.780751      7.211772  12.0000  47.8670
     10    1 Ti   22     -0.002526     13.257637      2.433604  12.0000  47.8670
     11    1 Ti   22      5.662924      1.893686      4.808319  12.0000  47.8670
     12    1 Ti   22     11.321860      0.018118     -0.004260  12.0000  47.8670
     13    1 Ti   22      3.765295      0.020807      0.003630  12.0000  47.8670
     14    1 Ti   22     13.215661      1.888068      4.804634  12.0000  47.8670
     15    1 Ti   22     13.219350      0.009864      7.218758  12.0000  47.8670
     16    1 Ti   22      3.773113      1.915924      2.397685  12.0000  47.8670
     17    1 Ti   22      1.900130      5.664276      4.813685  12.0000  47.8670
     18    1 Ti   22     -0.001417     11.492472     -0.033082  12.0000  47.8670
     19    1 Ti   22      0.000835      5.682910      2.433845  12.0000  47.8670
     20    1 Ti   22      1.887685     11.348988      7.198803  12.0000  47.8670
     21    1 Ti   22      0.000138      7.453583     -0.033558  12.0000  47.8670
     22    1 Ti   22      1.925043      9.459113      4.811547  12.0000  47.8670
     23    1 Ti   22      7.547364      1.912359      2.399680  12.0000  47.8670
     24    1 Ti   22      9.428955      0.004303      7.215591  12.0000  47.8670
     25    1 Ti   22      1.890362      7.565388      7.194947  12.0000  47.8670
     26    1 Ti   22      0.002051      9.470872      2.488241  12.0000  47.8670
     27    1 Ti   22      9.436236      1.892087      4.804751  12.0000  47.8670
     28    1 Ti   22      7.540706      0.016162      0.005127  12.0000  47.8670
     29    1 Ti   22      3.771911      3.806856      0.001961  12.0000  47.8670
     30    1 Ti   22     13.217411     13.247367      4.810799  12.0000  47.8670
     31    1 Ti   22     11.346354      5.691960      2.399805  12.0000  47.8670
     32    1 Ti   22      5.657530     11.357545      7.207892  12.0000  47.8670
     33    1 Ti   22     13.223809      3.777279      7.211022  12.0000  47.8670
     34    1 Ti   22      3.767779     13.249847      2.400911  12.0000  47.8670
     35    1 Ti   22      5.675761      5.668656      4.806892  12.0000  47.8670
     36    1 Ti   22     11.332716     11.357770     -0.000312  12.0000  47.8670
     37    1 Ti   22     11.336441     13.248430      2.404197  12.0000  47.8670
     38    1 Ti   22      5.658505      3.781083      7.212749  12.0000  47.8670
     39    1 Ti   22      3.781467     11.358557      0.005273  12.0000  47.8670
     40    1 Ti   22     13.222987      5.661923      4.815626  12.0000  47.8670
     41    1 Ti   22      5.663501     13.238841      4.801373  12.0000  47.8670
     42    1 Ti   22     11.335566      3.798710      0.000596  12.0000  47.8670
     43    1 Ti   22     13.229098     11.352639      7.199770  12.0000  47.8670
     44    1 Ti   22      3.779241      5.696881      2.403678  12.0000  47.8670
     45    1 Ti   22      3.786191      7.585466     -0.003626  12.0000  47.8670
     46    1 Ti   22     13.200930      9.462744      4.813930  12.0000  47.8670
     47    1 Ti   22      7.566396      5.693522      2.404846  12.0000  47.8670
     48    1 Ti   22      9.448443     11.354272      7.213578  12.0000  47.8670
     49    1 Ti   22     13.231010      7.566208      7.193721  12.0000  47.8670
     50    1 Ti   22      3.796286      9.468199      2.400659  12.0000  47.8670
     51    1 Ti   22      9.457491      5.667193      4.808673  12.0000  47.8670
     52    1 Ti   22      7.551050     11.363310     -0.006850  12.0000  47.8670
     53    1 Ti   22     11.334184      9.473090      2.397029  12.0000  47.8670
     54    1 Ti   22      5.671590      7.559785      7.209105  12.0000  47.8670
     55    1 Ti   22      5.685880      9.457014      4.817517  12.0000  47.8670
     56    1 Ti   22     11.338199      7.584163      0.003625  12.0000  47.8670
     57    1 Ti   22      9.444104      3.778379      7.213660  12.0000  47.8670
     58    1 Ti   22      7.552156     13.241636      2.404042  12.0000  47.8670
     59    1 Ti   22      7.550710      3.804988     -0.001494  12.0000  47.8670
     60    1 Ti   22      9.439569     13.237632      4.803791  12.0000  47.8670
     61    1 Ti   22      7.562311      7.579763     -0.003869  12.0000  47.8670
     62    1 Ti   22      9.447947      9.461271      4.816937  12.0000  47.8670
     63    1 Ti   22      7.564943      9.471980      2.397002  12.0000  47.8670
     64    1 Ti   22      9.457948      7.560287      7.206316  12.0000  47.8670
     65    2 O     8      0.001934      0.016636      1.997747   6.0000  15.9994
     66    2 O     8      1.882403      1.890394      6.798306   6.0000  15.9994
     67    2 O     8     -0.003380      1.883528      4.396409   6.0000  15.9994
     68    2 O     8      1.878593      0.060575      9.203387   6.0000  15.9994
     69    2 O     8      1.880915      0.003789      5.215828   6.0000  15.9994
     70    2 O     8     -0.002330      1.917254      0.422014   6.0000  15.9994
     71    2 O     8      1.885863      1.937901      2.814536   6.0000  15.9994
     72    2 O     8     -0.006619      0.000238      7.625453   6.0000  15.9994
     73    2 O     8     -0.004673      3.807726      1.999679   6.0000  15.9994
     74    2 O     8      1.886365     13.238848      6.801980   6.0000  15.9994
     75    2 O     8     11.334264      1.878870      4.396195   6.0000  15.9994
     76    2 O     8      5.649575     -0.000405      9.210397   6.0000  15.9994
     77    2 O     8      1.883953      3.778058      5.216331   6.0000  15.9994
     78    2 O     8     -0.001625     13.289394      0.401302   6.0000  15.9994
     79    2 O     8      5.656620      1.943605      2.811226   6.0000  15.9994
     80    2 O     8     11.326013     -0.000193      7.622246   6.0000  15.9994
     81    2 O     8      3.766861      0.000068      7.623489   6.0000  15.9994
     82    2 O     8     13.224043      1.890559      2.812970   6.0000  15.9994
     83    2 O     8     13.222598      0.058505      9.205675   6.0000  15.9994
     84    2 O     8      3.772050      1.878298      4.396466   6.0000  15.9994
     85    2 O     8      1.888696      5.665738      6.796966   6.0000  15.9994
     86    2 O     8     -0.000134     11.341831      1.938596   6.0000  15.9994
     87    2 O     8     -0.000735      5.660091      0.406107   6.0000  15.9994
     88    2 O     8      1.887167     11.345944      5.217244   6.0000  15.9994
     89    2 O     8      0.000365      7.605254      1.940853   6.0000  15.9994
     90    2 O     8      1.875772      9.457773      6.797956   6.0000  15.9994
     91    2 O     8      7.547280      1.888929      4.391078   6.0000  15.9994
     92    2 O     8      9.432563      0.007121      9.205049   6.0000  15.9994
     93    2 O     8      1.880205      7.568356      5.219179   6.0000  15.9994
     94    2 O     8     -0.000538      9.473268      0.265879   6.0000  15.9994
     95    2 O     8      9.440955      1.932275      2.814120   6.0000  15.9994
     96    2 O     8      7.537585      0.001463      7.630217   6.0000  15.9994
     97    2 O     8      3.767613      0.018545      1.993685   6.0000  15.9994
     98    2 O     8     13.231899      1.888069      6.799040   6.0000  15.9994
     99    2 O     8      0.000558      5.653407      4.396168   6.0000  15.9994
    100    2 O     8      1.872610     11.285509      9.211287   6.0000  15.9994
    101    2 O     8     13.235223      0.002830      5.217890   6.0000  15.9994
    102    2 O     8      3.768413      1.916578      0.413514   6.0000  15.9994
    103    2 O     8      1.885975      5.714201      2.816296   6.0000  15.9994
    104    2 O     8     -0.001054     11.420300      7.609335   6.0000  15.9994
    105    2 O     8     11.302145      1.908761      0.411047   6.0000  15.9994
    106    2 O     8      5.695381      0.001216      5.215274   6.0000  15.9994
    107    2 O     8      5.646780      1.888731      6.800092   6.0000  15.9994
    108    2 O     8     11.311951      0.012666      1.990379   6.0000  15.9994
    109    2 O     8      1.882018      3.822221      9.204400   6.0000  15.9994
    110    2 O     8     -0.002708     13.236147      4.392929   6.0000  15.9994
    111    2 O     8     -0.003663      3.763141      7.623717   6.0000  15.9994
    112    2 O     8      1.881367     13.237084      2.815749   6.0000  15.9994
    113    2 O     8      3.766426      3.815986      1.991457   6.0000  15.9994
    114    2 O     8     13.227389     13.240696      6.802935   6.0000  15.9994
    115    2 O     8     11.350486      5.651109      4.398202   6.0000  15.9994
    116    2 O     8      5.655936     11.409155      9.204529   6.0000  15.9994
    117    2 O     8     13.235340      3.773857      5.215186   6.0000  15.9994
    118    2 O     8      3.707150     13.245410      0.410016   6.0000  15.9994
    119    2 O     8      5.670565      5.711262      2.816280   6.0000  15.9994
    120    2 O     8     11.347923     11.362145      7.623920   6.0000  15.9994
    121    2 O     8     11.359088     13.243422      0.405395   6.0000  15.9994
    122    2 O     8      5.655018      3.778994      5.218601   6.0000  15.9994
    123    2 O     8      3.764328     11.356842      7.625659   6.0000  15.9994
    124    2 O     8     13.236240      5.714420      2.816010   6.0000  15.9994
    125    2 O     8      5.647250     13.236697      6.795835   6.0000  15.9994
    126    2 O     8     11.355396      3.803133      1.990797   6.0000  15.9994
    127    2 O     8     13.243310     11.291658      9.210587   6.0000  15.9994
    128    2 O     8      3.777056      5.658362      4.398277   6.0000  15.9994
    129    2 O     8      5.649936      5.668053      6.797877   6.0000  15.9994
    130    2 O     8     11.350632     11.359694      1.992035   6.0000  15.9994
    131    2 O     8     13.228326      3.814796      9.204327   6.0000  15.9994
    132    2 O     8      3.769067     13.240686      4.397663   6.0000  15.9994
    133    2 O     8     11.357481      5.700685      0.408423   6.0000  15.9994
    134    2 O     8      5.647766     11.345752      5.219365   6.0000  15.9994
    135    2 O     8      3.768345      3.765633      7.623811   6.0000  15.9994
    136    2 O     8     13.230797     13.240798      2.813361   6.0000  15.9994
    137    2 O     8     13.236402     11.350279      5.219186   6.0000  15.9994
    138    2 O     8      3.761966      5.706310      0.407894   6.0000  15.9994
    139    2 O     8      5.654518     13.242417      2.810864   6.0000  15.9994
    140    2 O     8     11.339312      3.761089      7.623872   6.0000  15.9994
    141    2 O     8      3.769065     11.356451      1.995052   6.0000  15.9994
    142    2 O     8     13.229626      5.663921      6.796898   6.0000  15.9994
    143    2 O     8     11.340211     13.241015      4.396959   6.0000  15.9994
    144    2 O     8      5.655745      3.825774      9.206146   6.0000  15.9994
    145    2 O     8      3.767914      7.587969      1.991611   6.0000  15.9994
    146    2 O     8     13.243158      9.460142      6.799887   6.0000  15.9994
    147    2 O     8      7.570061      5.648164      4.397410   6.0000  15.9994
    148    2 O     8      9.451793     11.353705      9.204023   6.0000  15.9994
    149    2 O     8     13.237435      7.571217      5.218701   6.0000  15.9994
    150    2 O     8      3.823467      9.473732      0.411809   6.0000  15.9994
    151    2 O     8      9.463500      5.709423      2.814965   6.0000  15.9994
    152    2 O     8      7.548656     11.348736      7.621272   6.0000  15.9994
    153    2 O     8     11.341528      9.472826      0.412489   6.0000  15.9994
    154    2 O     8      5.704167      7.563624      5.220265   6.0000  15.9994
    155    2 O     8      5.648930      9.457452      6.805319   6.0000  15.9994
    156    2 O     8     11.353605      7.586795      1.993149   6.0000  15.9994
    157    2 O     8      9.443819      3.828330      9.204155   6.0000  15.9994
    158    2 O     8      7.549929     13.196473      4.393143   6.0000  15.9994
    159    2 O     8      7.547585      3.768970      7.622648   6.0000  15.9994
    160    2 O     8      9.445699     13.239627      2.814961   6.0000  15.9994
    161    2 O     8      7.533900      0.016220      1.997027   6.0000  15.9994
    162    2 O     8      9.417989      1.887952      6.801309   6.0000  15.9994
    163    2 O     8      0.001824      9.469253      4.389179   6.0000  15.9994
    164    2 O     8      1.876674      7.663111      9.209544   6.0000  15.9994
    165    2 O     8      9.418615      0.000855      5.215962   6.0000  15.9994
    166    2 O     8      7.532636      1.911056      0.410083   6.0000  15.9994
    167    2 O     8      1.891785      9.476205      2.808154   6.0000  15.9994
    168    2 O     8      0.000071      7.472430      7.608664   6.0000  15.9994
    169    2 O     8      7.582393      3.811339      1.988915   6.0000  15.9994
    170    2 O     8      9.419177     13.236792      6.801653   6.0000  15.9994
    171    2 O     8     11.348526      9.469589      4.399854   6.0000  15.9994
    172    2 O     8      5.666160      7.592227      9.196382   6.0000  15.9994
    173    2 O     8      9.467076      3.775518      5.219296   6.0000  15.9994
    174    2 O     8      7.581467     13.244658      0.413162   6.0000  15.9994
    175    2 O     8      5.675334      9.470824      2.826031   6.0000  15.9994
    176    2 O     8     11.354196      7.531514      7.623507   6.0000  15.9994
    177    2 O     8      3.767953      7.532076      7.620302   6.0000  15.9994
    178    2 O     8     13.234396      9.474541      2.808291   6.0000  15.9994
    179    2 O     8     13.245879      7.660218      9.209132   6.0000  15.9994
    180    2 O     8      3.781095      9.422958      4.401200   6.0000  15.9994
    181    2 O     8      9.464592      5.666005      6.798149   6.0000  15.9994
    182    2 O     8      7.538036     11.356732      1.989624   6.0000  15.9994
    183    2 O     8      7.534308      5.701320      0.410340   6.0000  15.9994
    184    2 O     8      9.472006     11.349833      5.223957   6.0000  15.9994
    185    2 O     8      7.587109      7.587507      1.991670   6.0000  15.9994
    186    2 O     8      9.467522      9.458833      6.804282   6.0000  15.9994
    187    2 O     8      7.571335      9.472161      4.402594   6.0000  15.9994
    188    2 O     8      9.458291      7.595759      9.203364   6.0000  15.9994
    189    2 O     8      9.469878      7.567113      5.220002   6.0000  15.9994
    190    2 O     8      7.532807      9.474097      0.407387   6.0000  15.9994
    191    2 O     8      9.458075      9.477293      2.816606   6.0000  15.9994
    192    2 O     8      7.566832      7.536851      7.618687   6.0000  15.9994



 SCF PARAMETERS         Density guess:                                   RESTART
                        --------------------------------------------------------
                        max_scf:                                              40
                        max_scf_history:                                       0
                        max_diis:                                              4
                        --------------------------------------------------------
                        eps_scf:                                        1.00E-06
                        eps_scf_history:                                0.00E+00
                        eps_diis:                                       1.00E-01
                        eps_eigval:                                     1.00E-05
                        --------------------------------------------------------
                        level_shift [a.u.]:                             0.000000
                        --------------------------------------------------------
                        Outer loop SCF in use 
                        No variables optimised in outer loop
                        eps_scf                                         1.00E-06
                        max_scf                                               60
                        No outer loop optimization
                        step_size                                       5.00E-01

 PW_GRID| Information for grid number                                          1
 PW_GRID| Grid distributed over                                   128 processors
 PW_GRID| Real space group dimensions                                   128    1
 PW_GRID| the grid is blocked:                                                NO
 PW_GRID| Cutoff [a.u.]                                                    300.0
 PW_GRID| spherical cutoff:                                                   NO
 PW_GRID|   Bounds   1           -112     112                Points:         225
 PW_GRID|   Bounds   2           -112     112                Points:         225
 PW_GRID|   Bounds   3            -72      71                Points:         144
 PW_GRID| Volume element (a.u.^3)  0.2035E-02     Volume (a.u.^3)     14833.7304
 PW_GRID| Grid span                                                    FULLSPACE
 PW_GRID|   Distribution                         Average         Max         Min
 PW_GRID|   G-Vectors                            56953.1       57150       56925
 PW_GRID|   G-Rays                                 253.1         254         253
 PW_GRID|   Real Space Points                    56953.1       64800       32400

 PW_GRID| Information for grid number                                          2
 PW_GRID| Number of the reference grid                                         1
 PW_GRID| Grid distributed over                                   128 processors
 PW_GRID| Real space group dimensions                                   128    1
 PW_GRID| the grid is blocked:                                                NO
 PW_GRID| Cutoff [a.u.]                                                    100.0
 PW_GRID| spherical cutoff:                                                   NO
 PW_GRID|   Bounds   1            -67      67                Points:         135
 PW_GRID|   Bounds   2            -67      67                Points:         135
 PW_GRID|   Bounds   3            -40      40                Points:          81
 PW_GRID| Volume element (a.u.^3)  0.1005E-01     Volume (a.u.^3)     14833.7304
 PW_GRID| Grid span                                                    FULLSPACE
 PW_GRID|   Distribution                         Average         Max         Min
 PW_GRID|   G-Vectors                            11533.0       12150       10800
 PW_GRID|   G-Rays                                  85.4          90          80
 PW_GRID|   Real Space Points                    11533.0       21870       10935

 PW_GRID| Information for grid number                                          3
 PW_GRID| Number of the reference grid                                         1
 PW_GRID| Grid distributed over                                   128 processors
 PW_GRID| Real space group dimensions                                     8   16
 PW_GRID| the grid is blocked:                                                NO
 PW_GRID| Cutoff [a.u.]                                                     33.3
 PW_GRID| spherical cutoff:                                                   NO
 PW_GRID|   Bounds   1            -37      37                Points:          75
 PW_GRID|   Bounds   2            -37      37                Points:          75
 PW_GRID|   Bounds   3            -24      23                Points:          48
 PW_GRID| Volume element (a.u.^3)  0.5494E-01     Volume (a.u.^3)     14833.7304
 PW_GRID| Grid span                                                    FULLSPACE
 PW_GRID|   Distribution                         Average         Max         Min
 PW_GRID|   G-Vectors                             2109.4        2475        1725
 PW_GRID|   G-Rays                                  28.1          33          23
 PW_GRID|   Real Space Points                     2109.4        2400        1728

 PW_GRID| Information for grid number                                          4
 PW_GRID| Number of the reference grid                                         1
 PW_GRID| Grid distributed over                                   128 processors
 PW_GRID| Real space group dimensions                                     8   16
 PW_GRID| the grid is blocked:                                                NO
 PW_GRID| Cutoff [a.u.]                                                     11.1
 PW_GRID| spherical cutoff:                                                   NO
 PW_GRID|   Bounds   1            -22      22                Points:          45
 PW_GRID|   Bounds   2            -22      22                Points:          45
 PW_GRID|   Bounds   3            -13      13                Points:          27
 PW_GRID| Volume element (a.u.^3)  0.2713         Volume (a.u.^3)     14833.7304
 PW_GRID| Grid span                                                    FULLSPACE
 PW_GRID|   Distribution                         Average         Max         Min
 PW_GRID|   G-Vectors                              427.1         585         270
 PW_GRID|   G-Rays                                   9.5          13           6
 PW_GRID|   Real Space Points                      427.1         486         270

 POISSON| Solver                                                        PERIODIC
 POISSON| Periodicity                                                        XYZ

 RS_GRID| Information for grid number                                          1
 RS_GRID|   Bounds   1           -112     112                Points:         225
 RS_GRID|   Bounds   2           -112     112                Points:         225
 RS_GRID|   Bounds   3            -72      71                Points:         144
 RS_GRID| Real space distribution over                                  8 groups
 RS_GRID| Real space distribution along direction                              1
 RS_GRID| Border size                                                         26
 RS_GRID| Real space distribution over                                 16 groups
 RS_GRID| Real space distribution along direction                              2
 RS_GRID| Border size                                                         26
 RS_GRID|   Distribution                         Average         Max         Min
 RS_GRID|   Planes                                  80.1          81          80
 RS_GRID|   Distribution                         Average         Max         Min
 RS_GRID|   Planes                                  66.1          67          66

 RS_GRID| Information for grid number                                          2
 RS_GRID|   Bounds   1            -67      67                Points:         135
 RS_GRID|   Bounds   2            -67      67                Points:         135
 RS_GRID|   Bounds   3            -40      40                Points:          81
 RS_GRID| Real space distribution over                                  8 groups
 RS_GRID| Real space distribution along direction                              1
 RS_GRID| Border size                                                         24
 RS_GRID| Real space distribution over                                 16 groups
 RS_GRID| Real space distribution along direction                              2
 RS_GRID| Border size                                                         24
 RS_GRID|   Distribution                         Average         Max         Min
 RS_GRID|   Planes                                  64.9          65          64
 RS_GRID|   Distribution                         Average         Max         Min
 RS_GRID|   Planes                                  56.4          57          56

 RS_GRID| Information for grid number                                          3
 RS_GRID|   Bounds   1            -37      37                Points:          75
 RS_GRID|   Bounds   2            -37      37                Points:          75
 RS_GRID|   Bounds   3            -24      23                Points:          48
 RS_GRID| Real space fully replicated
 RS_GRID| Group size                                                           1

 RS_GRID| Information for grid number                                          4
 RS_GRID|   Bounds   1            -22      22                Points:          45
 RS_GRID|   Bounds   2            -22      22                Points:          45
 RS_GRID|   Bounds   3            -13      13                Points:          27
 RS_GRID| Real space fully replicated
 RS_GRID| Group size                                                           1

 Spin 1

 Number of electrons:                                                        768
 Number of occupied orbitals:                                                768
 Number of molecular orbitals:                                               768

 Spin 2

 Number of electrons:                                                        768
 Number of occupied orbitals:                                                768
 Number of molecular orbitals:                                               768

 Number of orbital functions:                                               3328
 Number of independent orbital functions:                                   3328

 Extrapolation method: initial_guess

 *** WARNING in qs_initial_guess.F:306 :: User requested to restart the    ***
 *** wavefunction from the file named: tio2-RESTART.wfn. This file does    ***
 *** not exist. Please check the existence of the file or change properly  ***
 *** the value of the keyword WFN_RESTART_FILE_NAME. Calculation continues ***
 *** using ATOMIC GUESS.                                                   ***


 Atomic guess: The first density matrix is obtained in terms of atomic orbitals
               and electronic configurations assigned to each atomic kind

 Guess for atomic kind: Ti

 Electronic structure
    Total number of core electrons                                         10.00
    Total number of valence electrons                                      12.00
    Total number of electrons                                              22.00
    Multiplicity                                                   not specified
    S   [  2.00  2.00] 2.00  2.00
    P   [  6.00] 6.00
    D      2.00


 *******************************************************************************
                  Iteration          Convergence                     Energy [au]
 *******************************************************************************
                          1         2.59099                     -56.573945749309
                          2        0.737518                     -57.461623245624
                          3        0.123244E-01                 -57.676656834797
                          4        0.338536E-02                 -57.676690535970
                          5        0.252157E-03                 -57.676697146183
                          6        0.162704E-05                 -57.676697160103
                          7        0.846593E-06                 -57.676697160104

 Energy components [Hartree]           Total Energy ::          -57.676697160104
                                        Band Energy ::          -13.440549799540
                                     Kinetic Energy ::           25.008468428381
                                   Potential Energy ::          -82.685165588485
                                      Virial (-V/T) ::            3.306286661467
                                        Core Energy ::          -97.155838374470
                                          XC Energy ::           -6.919409696495
                                     Coulomb Energy ::           46.398550910862
                       Total Pseudopotential Energy ::         -122.259340742080
                       Local Pseudopotential Energy ::         -118.928992669456
                    Nonlocal Pseudopotential Energy ::           -3.330348072625
                                        Confinement ::            0.950339392289

 Orbital energies  State     L     Occupation   Energy[a.u.]          Energy[eV]

                       1     0          2.000      -2.312566          -62.928123
                       2     0          2.000      -0.123060           -3.348633

                       1     1          6.000      -1.385567          -37.703193

                       1     2          2.000      -0.127948           -3.481643


 Total Electron Density at R=0:                                         0.004726

 Guess for atomic kind: O

 Electronic structure
    Total number of core electrons                                          2.00
    Total number of valence electrons                                       6.00
    Total number of electrons                                               8.00
    Multiplicity                                                   not specified
    S   [  2.00] 2.00
    P      4.00


 *******************************************************************************
                  Iteration          Convergence                     Energy [au]
 *******************************************************************************
                          1        0.702811                     -15.577904332270
                          2        0.612408                     -15.588447180504
                          3        0.955344E-02                 -15.655871208406
                          4        0.223754E-02                 -15.655885053552
                          5        0.157183E-02                 -15.655885461027
                          6        0.124953E-02                 -15.655885607150
                          7        0.312011E-06                 -15.655885858066

 Energy components [Hartree]           Total Energy ::          -15.655885858066
                                        Band Energy ::           -2.983128125584
                                     Kinetic Energy ::           11.754765134683
                                   Potential Energy ::          -27.410650992749
                                      Virial (-V/T) ::            2.331875684345
                                        Core Energy ::          -26.153522949072
                                          XC Energy ::           -3.157392363346
                                     Coulomb Energy ::           13.655029454351
                       Total Pseudopotential Energy ::          -37.943026860963
                       Local Pseudopotential Energy ::          -39.220419683052
                    Nonlocal Pseudopotential Energy ::            1.277392822089
                                        Confinement ::            0.347387772086

 Orbital energies  State     L     Occupation   Energy[a.u.]          Energy[eV]

                       1     0          2.000      -0.861522          -23.443215

                       1     1          4.000      -0.315021           -8.572154


 Total Electron Density at R=0:                                         0.000093

 Spin 1
 Re-scaling the density matrix to get the right number of electrons for spin 1
                  # Electrons              Trace(P)               Scaling factor
                          768               768.001                        1.000

 Spin 2
 Re-scaling the density matrix to get the right number of electrons for spin 2
                  # Electrons              Trace(P)               Scaling factor
                          768               768.001                        1.000


 SCF WAVEFUNCTION OPTIMIZATION

  ----------------------------------- OT ---------------------------------------
  Minimizer      : DIIS                : direct inversion
                                         in the iterative subspace
                                         using   7 DIIS vectors
                                         safer DIIS on
  Preconditioner : FULL_SINGLE_INVERSE : inversion of 
                                         H + eS - 2*(Sc)(c^T*H*c+const)(Sc)^T
  Precond_solver : DEFAULT
  stepsize       :    0.08000000                  energy_gap     :    0.08000000
  eps_taylor     :   0.10000E-15                  max_taylor     :             4
  ----------------------------------- OT ---------------------------------------

  Step     Update method      Time    Convergence         Total energy    Change
  ------------------------------------------------------------------------------
     1 OT DIIS     0.80E-01    2.2     0.01006022     -5659.0857957085 -5.66E+03
     2 OT DIIS     0.80E-01    1.5     0.00726449     -5694.0747348197 -3.50E+01
     3 OT DIIS     0.80E-01    1.5     0.00471316     -5726.0554721358 -3.20E+01
     4 OT DIIS     0.80E-01    1.5     0.00369521     -5736.4898244586 -1.04E+01
     5 OT DIIS     0.80E-01    1.5     0.00269933     -5748.2940515552 -1.18E+01
     6 OT DIIS     0.80E-01    1.5     0.00221649     -5755.3593364538 -7.07E+00
     7 OT DIIS     0.80E-01    1.5     0.00184824     -5761.6779280979 -6.32E+00
     8 OT DIIS     0.80E-01    1.5     0.00148337     -5767.6112962665 -5.93E+00
     9 OT DIIS     0.80E-01    1.5     0.00128253     -5771.2814339846 -3.67E+00
    10 OT DIIS     0.80E-01    1.5     0.00099935     -5774.6049394343 -3.32E+00
    11 OT DIIS     0.80E-01    1.5     0.00090996     -5775.4408261374 -8.36E-01
    12 OT DIIS     0.80E-01    1.5     0.00072999     -5777.3372601983 -1.90E+00
    13 OT DIIS     0.80E-01    1.5     0.00060164     -5778.6173634332 -1.28E+00
    14 OT DIIS     0.80E-01    1.5     0.00049571     -5779.5759469902 -9.59E-01
    15 OT DIIS     0.80E-01    1.5     0.00044756     -5780.0294077613 -4.53E-01
    16 OT DIIS     0.80E-01    1.5     0.00037277     -5780.6533354739 -6.24E-01
    17 OT DIIS     0.80E-01    1.5     0.00038005     -5780.6471768239  6.16E-03
    18 OT DIIS     0.80E-01    1.5     0.00031264     -5781.0438744187 -3.97E-01
    19 OT DIIS     0.80E-01    1.5     0.00028064     -5781.3059488465 -2.62E-01
    20 OT DIIS     0.80E-01    1.5     0.00026476     -5781.4114193689 -1.05E-01
    21 OT DIIS     0.80E-01    1.5     0.00023175     -5781.6741206884 -2.63E-01
    22 OT SD       0.80E-01    1.5     0.00022892     -5781.7959605724 -1.22E-01
    23 OT DIIS     0.80E-01    1.5     0.00022104     -5781.8169718884 -2.10E-02
    24 OT DIIS     0.80E-01    1.5     0.00019557     -5781.9968105622 -1.80E-01
    25 OT DIIS     0.80E-01    1.5     0.00019263     -5782.0389173519 -4.21E-02
    26 OT DIIS     0.80E-01    1.5     0.00017439     -5782.1542660215 -1.15E-01
    27 OT DIIS     0.80E-01    1.5     0.00015312     -5782.2801622472 -1.26E-01
    28 OT DIIS     0.80E-01    1.5     0.00013551     -5782.3646846513 -8.45E-02
    29 OT DIIS     0.80E-01    1.5     0.00013586     -5782.3874393205 -2.28E-02
    30 OT DIIS     0.80E-01    1.5     0.00012365     -5782.4183533592 -3.09E-02
    31 OT DIIS     0.80E-01    1.5     0.00010976     -5782.4744793974 -5.61E-02
    32 OT DIIS     0.80E-01    1.5     0.00009987     -5782.5122292583 -3.77E-02
    33 OT DIIS     0.80E-01    1.5     0.00009859     -5782.5400506761 -2.78E-02
    34 OT SD       0.80E-01    1.5     0.00008768     -5782.5635705388 -2.35E-02
    35 OT DIIS     0.80E-01    1.5     0.00008640     -5782.5666889786 -3.12E-03
    36 OT DIIS     0.80E-01    1.5     0.00008601     -5782.5896803614 -2.30E-02
    37 OT DIIS     0.80E-01    1.5     0.00008122     -5782.5982605183 -8.58E-03
    38 OT DIIS     0.80E-01    1.5     0.00007900     -5782.6171433575 -1.89E-02
    39 OT DIIS     0.80E-01    1.5     0.00007812     -5782.6289662877 -1.18E-02
    40 OT DIIS     0.80E-01    1.5     0.00007755     -5782.6429732264 -1.40E-02

  Leaving inner SCF loop after reaching    40 steps.


  Electronic density on regular grids:      -1535.9999999999        0.0000000001
  Core density on regular grids:             1535.9999999995       -0.0000000005
  Total charge density on r-space grids:       -0.0000000004
  Total charge density g-space grids:          -0.0000000004

  Overlap energy of the core charge distribution:               0.00000000000386
  Self energy of the core charge distribution:             -12156.89556134359555
  Core Hamiltonian energy:                                   3260.37882512942633
  Hartree energy:                                            4030.32643020089199
  Exchange-correlation energy:                               -922.66016728355009

  DFT+U energy:                                                 6.20750007045712

  Total energy:                                             -5782.64297322636685

  outer SCF iter =    1 RMS gradient =   0.78E-04 energy =      -5782.6429732264

  ----------------------------------- OT ---------------------------------------
  Minimizer      : DIIS                : direct inversion
                                         in the iterative subspace
                                         using   7 DIIS vectors
                                         safer DIIS on
  Preconditioner : FULL_SINGLE_INVERSE : inversion of 
                                         H + eS - 2*(Sc)(c^T*H*c+const)(Sc)^T
  Precond_solver : DEFAULT
  stepsize       :    0.08000000                  energy_gap     :    0.08000000
  eps_taylor     :   0.10000E-15                  max_taylor     :             4
  ----------------------------------- OT ---------------------------------------

[...]
 flops    26 x    13 x    32          94984208384       0.0%    100.0%      0.0%     
 flops    13 x    26 x    32          94984208384       0.0%    100.0%      0.0%     
 flops    26 x    26 x    32          96468336640       0.0%    100.0%      0.0%     
 flops    96 x    32 x    32         112742891520       0.0%    100.0%      0.0%     
 flops    13 x    13 x    64         185760733184       0.0%    100.0%      0.0%     
 flops    26 x    13 x    64         189968416768       0.0%    100.0%      0.0%     
 flops    13 x    26 x    64         189968416768       0.0%    100.0%      0.0%     
 flops    26 x    26 x    64         192936673280       0.0%    100.0%      0.0%     
 flops    96 x    64 x    32         225485783040       0.0%    100.0%      0.0%     
 flops    96 x    32 x    64         225485783040       0.0%    100.0%      0.0%     
 flops   416 x    32 x    32         275683213312       0.0%    100.0%      0.0%     
 flops    96 x    64 x    64         450971566080       0.0%    100.0%      0.0%     
 flops   416 x    64 x    32         551366426624       0.0%    100.0%      0.0%     
 flops   416 x    32 x    64         551366426624       0.0%    100.0%      0.0%     
 flops    96 x    32 x   208         674022555648       0.0%    100.0%      0.0%     
 flops   416 x    32 x   208         768379715584       0.0%    100.0%      0.0%     
 flops   416 x    64 x    64        1102732853248       0.0%    100.0%      0.0%     
 flops    13 x    32 x    13        1166433954816       0.0%    100.0%      0.0%     
 flops    26 x    32 x    26        1203605864448       0.0%    100.0%      0.0%     
 flops    26 x    32 x    13        1203605864448       0.0%    100.0%      0.0%     
 flops    13 x    32 x    26        1203605864448       0.0%    100.0%      0.0%     
 flops    96 x    64 x   208        1349190156288       0.0%    100.0%      0.0%     
 flops   416 x    64 x   208        1542430130176       0.0%    100.0%      0.0%     
 flops inhomo. stacks                     2690360     100.0%      0.0%      0.0%
 flops total                        13.783453E+12       0.0%    100.0%      0.0%
 flops max/rank                    142.352321E+09       0.0%    100.0%      0.0%
 matmuls inhomo. stacks                      3900     100.0%      0.0%      0.0%
 matmuls total                          301551256       0.0%    100.0%      0.0%
 number of processed stacks               8543356       0.0%    100.0%      0.0%
 average stack size                                     1.0      35.3       0.0
 marketing flops                    15.000578E+12
 -------------------------------------------------------------------------------
 # multiplications                           4737
 max memory usage/rank             348.065792E+06
 # max total images/rank                        2
 # max 3D layers                                1
 # MPI messages exchanged                17583744
 MPI messages size (bytes):
  total size                         1.743152E+12
  min size                           0.000000E+00
  max size                         692.224000E+03
  average size                      99.134305E+03
 MPI breakdown and total messages size (bytes):
             size <=      128             5799808                   140416
       128 < size <=     8192              990112               6844542400
      8192 < size <=    32768             3504608              79691227104
     32768 < size <=   131072             3879296             296349392896
    131072 < size <=  4194304             3409920            1360290331920
   4194304 < size <= 16777216                   0                        0
  16777216 < size                               0                        0
 -------------------------------------------------------------------------------

 *** WARNING in dbcsr_mm.F:301 :: Using a non-square number of MPI ranks ***
 *** might lead to poor performance. Used ranks: 128 Suggested: 121 256  ***

 -------------------------------------------------------------------------------
 -                                                                             -
 -                      DBCSR MESSAGE PASSING PERFORMANCE                      -
 -                                                                             -
 -------------------------------------------------------------------------------
 ROUTINE             CALLS      AVE VOLUME [Bytes]
 MP_Bcast               50                     12.
 MP_Allreduce        24730                     26.
 MP_Alltoall         17121                  29535.
 MP_ISend           298356                  49142.
 MP_IRecv           297832                  48681.
 -------------------------------------------------------------------------------

 -------------------------------------------------------------------------------
 -                                                                             -
 -                                DBM STATISTICS                               -
 -                                                                             -
 -------------------------------------------------------------------------------
    M  x    N  x    K                                          COUNT     PERCENT
 -------------------------------------------------------------------------------

 -------------------------------------------------------------------------------
 -                                                                             -
 -                                GRID STATISTICS                              -
 -                                                                             -
 -------------------------------------------------------------------------------
 LP    KERNEL             BACKEND                              COUNT     PERCENT
 5     collocate ortho    CPU                               20386470      25.42%
 5     integrate ortho    CPU                               20072832      25.03%
 6     collocate ortho    CPU                               10416510      12.99%
 6     integrate ortho    CPU                               10256256      12.79%
 4     collocate ortho    CPU                                9301370      11.60%
 4     integrate ortho    CPU                                9158272      11.42%
 0     integrate general  CPU                                 393216       0.49%
 0     collocate general  CPU                                 221184       0.28%
 2     collocate ortho    CPU                                   2560       0.00%
 3     collocate ortho    CPU                                   1536       0.00%
 -------------------------------------------------------------------------------

 MEMORY| Estimated peak process memory [MiB]                                 333

 -------------------------------------------------------------------------------
 ----                             MULTIGRID INFO                            ----
 -------------------------------------------------------------------------------
 count for grid        1:        1287123          cutoff [a.u.]          300.00
 count for grid        2:         980951          cutoff [a.u.]          100.00
 count for grid        3:         793925          cutoff [a.u.]           33.33
 count for grid        4:         536860          cutoff [a.u.]           11.11
 total gridlevel count  :        3598859

 -------------------------------------------------------------------------------
 -                                                                             -
 -                         MESSAGE PASSING PERFORMANCE                         -
 -                                                                             -
 -------------------------------------------------------------------------------

 ROUTINE             CALLS      AVE VOLUME [Bytes]
 MP_Group                4
 MP_Bcast             8522                  19372.
 MP_Allreduce        22711                    454.
 MP_Sync               780
 MP_Alltoall          2679                2280520.
 MP_SendRecv         34036                  11544.
 MP_ISendRecv        32512                  11544.
 MP_Wait             48336
 MP_comm_split         252
 MP_ISend            28676                  77979.
 MP_IRecv            28616                  78139.
 MP_Write_All            6                 355816.
 -------------------------------------------------------------------------------


 -------------------------------------------------------------------------------
 -                                                                             -
 -                           R E F E R E N C E S                               -
 -                                                                             -
 -------------------------------------------------------------------------------
 
 CP2K version 2024.3, the CP2K developers group (2024).
 CP2K is freely available from https://www.cp2k.org/ .
 
 T. D. Kuehne, M. Iannuzzi, M. Del Ben, V. V. Rybkin, P. Seewald, F. Stein, T. 
 Laino, R. Z. Khaliullin, O. Schuett, F. Schiffmann, D. Golze, J. Wilhelm, S. 
 Chulkov, M. H. Bani-Hashemian, V. Weber, U. Borstnik, M. Taillefumier, A. S. 
 Jakobovits, A. Lazzaro, H. Pabst, T. Mueller, R. Schade, M. Guidon, S. 
 Andermatt, N. Holmberg, G. K. Schenter, A. Hehn, A. Bussy, F. Belleflamme, G. 
 Tabacchi, A. Gloess, M. Lass, I. Bethune, C. J. Mundy, C. Plessl, M. Watkins, 
 J. VandeVondele, M. Krack, J. Hutter.
 J. Chem. Phys. 152, 194103 (2020).
 CP2K: An electronic structure and molecular dynamics software package - 
 Quickstep: Efficient and accurate electronic structure calculations.
 https://doi.org/10.1063/5.0007045

 O. Schuett, P. Messmer, J. Hutter, J. VandeVondele.
 Electronic Structure Calculations on Graphics Processing Units, 173-190 (2016).
 GPU-Accelerated Sparse Matrix-Matrix Multiplication for Linear Scaling Density 
 Functional Theory.
 https://doi.org/10.1002/9781118670712.ch8

 A. Heinecke, G. Henry, M. Hutchinson, H. Pabst.
 Proceedings of Intl. Supercomputing Conference, 981-991 (2016).
 LIBXSMM: Accelerating Small Matrix Multiplications by Runtime Code Generation.
 https://doi.org/10.1109/SC.2016.83

 J. Hutter, M. Iannuzzi, F. Schiffmann, J. VandeVondele.
 WIREs Comput Mol Sci. 4, 15-25 (2014).
 CP2K: atomistic simulations of condensed matter systems.
 https://doi.org/10.1002/wcms.1159

 U. Borstnik, J. VandeVondele, V. Weber, J. Hutter.
 Parallel Comput. 40, 47-58 (2014).
 Sparse matrix multiplication: The distributed block-compressed sparse row 
 library.
 https://doi.org/10.1016/j.parco.2014.03.012

 A. Marek, V. Blum, R. Johanni, V. Havu, B. Lang, T. Auckenthaler, A. Heinecke, 
 H. Bungartz, H. Lederer.
 J. Phys. Condens. Matter 26, 213201 (2014).
 The ELPA library: scalable parallel eigenvalue solutions for electronic 
 structure theory and computational science.
 https://doi.org/10.1088/0953-8984/26/21/213201

 J. VandeVondele, J. Hutter.
 J. Chem. Phys. 127, 114105 (2007).
 Gaussian basis sets for accurate calculations on molecular systems in gas and 
 condensed phases.
 https://doi.org/10.1063/1.2770708

 J. VandeVondele, M. Krack, F. Mohamed, M. Parrinello, T. Chassaing, J. Hutter.
 Comput. Phys. Commun. 167, 103-128 (2005).
 QUICKSTEP: Fast and accurate density functional calculations using a mixed 
 Gaussian and plane waves approach.
 https://doi.org/10.1016/j.cpc.2004.12.014

 M. Krack.
 Theor. Chem. Acc. 114, 145-152 (2005).
 Pseudopotentials for H to Kr optimized for gradient-corrected 
 exchange-correlation functionals.
 https://doi.org/10.1007/s00214-005-0655-y

 M. Frigo, S. G. Johnson.
 Proc. IEEE 93, 216-231 (2005).
 The design and implementation of FFTW3.
 https://doi.org/10.1109/JPROC.2004.840301

 J. VandeVondele, J. Hutter.
 J. Chem. Phys. 118, 4365-4369 (2003).
 An efficient orbital transformation method for electronic structure 
 calculations.
 https://doi.org/10.1063/1.1543154

 C. Hartwigsen, S. Goedecker, J. Hutter.
 Phys. Rev. B 58, 3641-3662 (1998).
 Relativistic separable dual-space Gaussian pseudopotentials from H to Rn.
 https://doi.org/10.1103/PhysRevB.58.3641

 S. L. Dudarev, G. A. Botton, S. Y. Savrasov, C. J. Humphreys, A. P. Sutton.
 Phys. Rev. B 57, 1505-1509 (1998).
 Electron-energy-loss spectra and the structural stability of nickel oxide: An 
 LSDA+U study.
 https://doi.org/10.1103/PhysRevB.57.1505

 G. Lippert, J. Hutter, M. Parrinello.
 Mol. Phys. 92, 477-487 (1997).
 A hybrid Gaussian and plane wave density functional scheme.
 https://doi.org/10.1080/002689797170220

 S. L. Dudarev, D. N. Manh, A. P. Sutton.
 Philos. Mag. B 75, 613-628 (1997).
 Effect of Mott-Hubbard correlations on the electronic structure and structural 
 stability of uranium dioxide.
 https://doi.org/10.1080/13642819708202343

 S. Goedecker, M. Teter, J. Hutter.
 Phys. Rev. B 54, 1703-1710 (1996).
 Separable dual-space Gaussian pseudopotentials.
 https://doi.org/10.1103/PhysRevB.54.1703

 J. P. Perdew, K. Burke, M. Ernzerhof.
 Phys. Rev. Lett. 77, 3865-3868 (1996).
 Generalized gradient approximation made simple.
 https://doi.org/10.1103/PhysRevLett.77.3865


 -------------------------------------------------------------------------------
 -                                                                             -
 -                                T I M I N G                                  -
 -                                                                             -
 -------------------------------------------------------------------------------
 SUBROUTINE                       CALLS  ASD         SELF TIME        TOTAL TIME
                                MAXIMUM       AVERAGE  MAXIMUM  AVERAGE  MAXIMUM
 CP2K                                 1  1.0    0.113    0.125  108.532  108.537
 qs_energies                          1  2.0    0.006    0.009  107.596  107.601
 scf_env_do_scf                       1  3.0    0.005    0.008   95.830   95.832
 scf_env_do_scf_inner_loop           64  4.0    0.007    0.018   92.594   92.659
 qs_ks_update_qs_env                 66  5.0    0.001    0.002   45.658   45.770
 rebuild_ks_matrix                   64  6.0    0.002    0.003   45.568   45.679
 qs_ks_build_kohn_sham_matrix        64  7.0    0.017    0.021   45.566   45.677
 sum_up_and_integrate                64  8.0    0.005    0.007   28.703   28.718
 integrate_v_rspace                 128  9.0    0.005    0.008   28.624   28.667
 qs_rho_update_rho_low               65  5.0    0.001    0.002   26.565   26.575
 calculate_rho_elec                 130  6.0    0.048    0.056   26.564   26.574
 dbcsr_multiply_generic            4737  9.2    0.173    0.181   22.539   23.105
 qs_scf_new_mos                      64  5.0    0.000    0.001   22.058   22.221
 qs_scf_loop_do_ot                   64  6.0    0.001    0.001   22.058   22.221
 grid_integrate_task_list           128 10.0   20.461   21.578   20.461   21.578
 ot_scf_mini                         64  7.0    0.003    0.003   20.656   20.773
 grid_collocate_task_list           130  7.0   19.175   20.159   19.175   20.159
 multiply_cannon                   4737 10.2    0.748    0.796   14.906   17.166
 fft_wrap_pw1pw2                   2143 10.3    0.042    0.051   14.174   15.963
 multiply_cannon_loop              4737 11.2    0.335    0.350   12.911   15.075
 fft_wrap_pw1pw2_300               1357 11.8    0.536    0.590   13.160   14.967
 qs_vxc_create                       64  8.0    0.002    0.004   13.490   13.596
 xc_vxc_pw_create                    64  9.0    0.245    0.316   13.488   13.594
 fft3d_ps                          2143 12.3    4.233    4.648   11.161   13.231
 ot_mini                            198  6.6    0.007    0.009   11.610   11.760
 xc_pw_derive                       768 11.0    0.007    0.008    9.124   10.697
 mp_waitall_1                    566216 13.3    6.496    9.644    6.496    9.644
 multiply_cannon_multrec          75792 12.2    6.050    9.611    6.065    9.627
 scf_post_calculation_gpw             1  3.0    0.005    0.007    9.395    9.399
 qs_ot_get_p                        270  6.9    0.004    0.005    8.832    9.113
 mp_alltoall_z22v                  2143 14.3    5.753    8.998    5.753    8.998
 qs_ot_get_derivative               196  8.3    0.001    0.002    8.396    8.485
 multiply_cannon_metrocomm3       75792 12.2    0.183    0.188    4.475    8.006
 density_rs2pw                      130  7.0    0.009    0.011    6.656    7.454
 xc_rho_set_and_dset_create          64 10.0    0.220    0.344    7.004    7.392
 xc_pw_divergence                   128 10.0    0.003    0.004    6.026    7.266
 qs_ot_p2m_diag                     248  8.0    0.054    0.072    6.712    6.751
 potential_pw2rs                    128 10.0    0.011    0.013    6.524    6.572
 cp_dbcsr_syevd                     248  9.0    0.074    0.081    5.710    5.715
 qs_ot_get_derivative_diag          178  9.3    0.004    0.005    5.500    5.587
 yz_to_x                            781 13.4    0.333    0.469    3.285    5.384
 cp_fm_redistribute_end             252 10.9    2.687    5.296    2.705    5.308
 make_lumo_gpw                        1  4.0    0.001    0.002    5.288    5.290
 ot_eigensolver                       2  5.0    0.003    0.004    5.268    5.270
 cp_fm_diag_elpa                    124 10.9    0.001    0.002    5.236    5.253
 cp_fm_diag_elpa_base               124 11.9    2.501    5.013    2.514    5.046
 make_m2s                          9474 10.2    0.129    0.140    4.625    4.926
 transfer_pw2rs                     514 11.0    0.007    0.009    4.797    4.819
 transfer_rs2pw                     538  7.9    0.009    0.012    3.934    4.684
 mp_waitany                       12664 11.4    3.335    4.511    3.335    4.511
 x_to_yz                            838 13.7    0.552    0.710    3.316    4.173
 make_images                       9474 11.2    0.253    0.274    3.746    4.008
 mp_sum_l                         22980 10.2    2.037    3.542    2.037    3.542
 transfer_pw2rs_300                 130 11.9    1.635    1.728    3.316    3.501
 transfer_rs2pw_300                 136  8.9    0.898    1.279    2.522    3.443
 init_scf_loop                        2  4.0    0.003    0.005    3.193    3.198
 write_available_results              1  4.0    0.002    0.004    3.177    3.180
 write_mo_free_results                1  5.0    0.139    0.145    3.136    3.142
 mp_alltoall_d11v                  3819 11.6    2.337    3.141    2.337    3.141
 apply_preconditioner_dbcsr         204  9.3    0.001    0.001    2.545    2.873
 apply_single                       204 10.3    0.001    0.001    2.544    2.873
 ot_diis_step                        64  9.0    0.014    0.016    2.616    2.618
 multiply_cannon_metrocomm4       71055 12.2    0.181    0.185    0.855    2.429
 rs_gather_matrices                 128 10.0    0.059    0.075    1.634    2.419
 mp_irecv_dv                     157581 13.2    0.762    2.415    0.762    2.415
 xc_functional_eval                  64 11.0    0.001    0.002    2.054    2.382
 pbe_lsd_eval                        64 12.0    2.052    2.381    2.052    2.381
 -------------------------------------------------------------------------------

 The number of warnings for this run is : 3
 
 -------------------------------------------------------------------------------
  **** **** ******  **  PROGRAM ENDED AT                 2025-06-22 05:16:05.926
 ***** ** ***  *** **   PROGRAM RAN ON                                 nid004176
 **    ****   ******    PROGRAM RAN BY                                    cahart
 ***** **    ** ** **   PROGRAM PROCESS ID                                149845
  **** **  *******  **  PROGRAM STOPPED IN /mnt/lustre/a2fs-work2/work/e05/e05/c
                                           ahart/postdoc2/work/group/tio2/anatas
                                           e/cell-441/geo-opt/mp-390/neutral-fro
                                           m-hole/pbe-u-o/u-2.2
