     192
 i =        1, E =     -5777.9513600141
Ti         0.0006641192        0.0006622851        0.0000007847
Ti        -0.0008011600       -0.0007989256        0.0000016836
Ti         0.0006635983       -0.0008244380       -0.0005949705
Ti        -0.0008253257        0.0006649493        0.0005970420
Ti         0.0006683652       -0.0012728602        0.0002809593
Ti        -0.0008270713       -0.0007149823       -0.0005952436
Ti         0.0007846659       -0.0008044255        0.0000017571
Ti        -0.0002839911        0.0006718110        0.0004041223
Ti        -0.0007731987       -0.0012623826        0.0003058273
Ti         0.0006631753       -0.0007109655        0.0000006163
Ti        -0.0002908233       -0.0007542022        0.0001925527
Ti         0.0008066903        0.0006630393       -0.0005928354
Ti        -0.0012754345        0.0006689398       -0.0002776050
Ti        -0.0007122780       -0.0008255192        0.0005982103
Ti        -0.0007103606        0.0006620284       -0.0000043199
Ti        -0.0012622475       -0.0007781161       -0.0003077349
Ti        -0.0007568137       -0.0002891525       -0.0001886295
Ti         0.0006655587        0.0008077996        0.0005930667
Ti         0.0006716975       -0.0002841769       -0.0004017984
Ti        -0.0008080175        0.0007829547        0.0000002556
Ti         0.0006723148        0.0003328377        0.0004034464
Ti        -0.0007803349        0.0012776633       -0.0003081046
Ti         0.0003365780       -0.0007601776       -0.0001916289
Ti         0.0012862392        0.0006654245        0.0002774859
Ti        -0.0007586854        0.0003353246        0.0001889296
Ti         0.0006667903        0.0012874446       -0.0002752659
Ti         0.0012788385       -0.0007738381        0.0003107130
Ti         0.0003349646        0.0006707113       -0.0004031595
Ti        -0.0012454248       -0.0012440448       -0.0000014999
Ti        -0.0007077304       -0.0007096574        0.0000036436
Ti         0.0007366610       -0.0002859148        0.0001894803
Ti        -0.0002881438        0.0007372173       -0.0001894860
Ti        -0.0007118373       -0.0012791074       -0.0002840592
Ti        -0.0012755583       -0.0007129964        0.0002804928
Ti        -0.0002898576       -0.0002899034       -0.0000008087
Ti         0.0007857538        0.0007856099        0.0000004943
Ti         0.0008056928       -0.0007110472        0.0005958851
Ti        -0.0002911822       -0.0012352155        0.0001054623
Ti        -0.0012658794        0.0007554615        0.0003095576
Ti        -0.0007134323       -0.0002828662        0.0004028143
Ti        -0.0002851152       -0.0007157700       -0.0004042242
Ti         0.0007558272       -0.0012634802       -0.0003051523
Ti        -0.0007093808        0.0008080103       -0.0005993539
Ti        -0.0012334069       -0.0002910014       -0.0001076716
Ti        -0.0012351807        0.0003369738        0.0001075563
Ti        -0.0007126559        0.0012889725        0.0002783827
Ti         0.0003387294       -0.0002858783        0.0000024231
Ti         0.0012773020        0.0007568290       -0.0003131941
Ti        -0.0007152057        0.0003357057       -0.0004082923
Ti        -0.0012442266        0.0012610364        0.0000004962
Ti         0.0012446895       -0.0002885241        0.0001127126
Ti         0.0003362470        0.0007383522        0.0001883784
Ti         0.0007546158        0.0012741449        0.0003116563
Ti        -0.0002884018        0.0003377260       -0.0000019622
Ti        -0.0002850308        0.0012431139       -0.0001110798
Ti         0.0007368677        0.0003384197       -0.0001859797
Ti         0.0012549025       -0.0012427131       -0.0000056809
Ti         0.0003361382       -0.0007132126        0.0004058626
Ti         0.0003374433       -0.0012325010       -0.0001100769
Ti         0.0012894055       -0.0007156792       -0.0002775895
Ti         0.0003378114        0.0003378646        0.0000011060
Ti         0.0012575910        0.0012566753       -0.0000022687
Ti         0.0003416413        0.0012415101        0.0001152858
Ti         0.0012444615        0.0003375028       -0.0001156663
O        -0.0001428935        0.0000588238       -0.0004898114
O         0.0005263676        0.0003145576       -0.0002792593
O         0.0000785303        0.0005659249       -0.0001485154
O         0.0003351163       -0.0001346411       -0.0005912429
O         0.0005701373        0.0000750363        0.0001474397
O        -0.0001362706        0.0003354592        0.0005926463
O         0.0003162694        0.0005304085        0.0002785333
O         0.0000533318       -0.0001465243        0.0004909324
O        -0.0001336814       -0.0006222193       -0.0005232058
O         0.0005713621       -0.0000843855       -0.0001450133
O        -0.0003341115        0.0005325985       -0.0002723758
O        -0.0001318071       -0.0001274021       -0.0006839148
O         0.0004625095       -0.0006211252        0.0002218723
O        -0.0001465353       -0.0000665671        0.0004877385
O        -0.0001327647        0.0004517783        0.0003902235
O        -0.0003555510       -0.0001363017        0.0005882972
O        -0.0006211101       -0.0001348373        0.0005203012
O        -0.0000901824        0.0005688938        0.0001438748
O        -0.0000633272       -0.0001435284       -0.0004917033
O        -0.0006200224        0.0004631667       -0.0002252885
O         0.0004437828       -0.0001307873       -0.0003883321
O        -0.0001346883       -0.0003525630       -0.0005865575
O        -0.0001336979       -0.0001341165        0.0006826882
O         0.0005385479       -0.0003386334        0.0002719449
O        -0.0001303377        0.0001505256       -0.0006817870
O         0.0004701977        0.0006131734       -0.0002168898
O         0.0001482018        0.0004469173       -0.0003861733
O         0.0006152260       -0.0001310687       -0.0005185274
O         0.0004508571        0.0001487742        0.0003852344
O        -0.0001341711        0.0006124631        0.0005172889
O         0.0006127549        0.0004693980        0.0002172793
O         0.0001473242       -0.0001317579        0.0006805852
O        -0.0005641725        0.0001061944       -0.0000772094
O         0.0001588802        0.0003360085       -0.0005940678
O         0.0001240813       -0.0006363785       -0.0000653898
O         0.0003164865       -0.0005421334       -0.0002853907
O         0.0001760429        0.0000554232        0.0004949386
O        -0.0005578106        0.0003116652        0.0002112749
O         0.0003235479       -0.0006307969        0.0001824154
O         0.0000798017       -0.0005891225        0.0001553209
O        -0.0005455636        0.0003149976        0.0002834119
O        -0.0006365310        0.0001219035        0.0000655741
O        -0.0006296540        0.0003236825       -0.0001816319
O        -0.0005902530        0.0000793776       -0.0001562469
O         0.0003127728       -0.0005571805       -0.0002115016
O         0.0000546973        0.0001767590       -0.0004989202
O         0.0001081840       -0.0005632666        0.0000783789
O         0.0003363335        0.0001569980        0.0005971772
O        -0.0005647864       -0.0006054790       -0.0001396571
O         0.0001720405       -0.0000642415       -0.0004893670
O        -0.0003397226       -0.0006307302       -0.0001769152
O        -0.0001327725       -0.0004587003       -0.0003909099
O         0.0001540058       -0.0006202867        0.0005261858
O        -0.0005609034       -0.0001212819        0.0000752897
O        -0.0001270452       -0.0006368193        0.0001835210
O        -0.0003363209       -0.0005534688        0.0002771257
O        -0.0005873514       -0.0000881112        0.0001513161
O        -0.0006362811       -0.0005945263        0.0000555020
O        -0.0006211143       -0.0004803677        0.0002263307
O        -0.0001332111       -0.0006356171        0.0000633433
O        -0.0006340823       -0.0001319418       -0.0000646489
O        -0.0004799829       -0.0006195996       -0.0002268691
O        -0.0000881152       -0.0005881164       -0.0001506257
O        -0.0005927285       -0.0006353629       -0.0000601465
O        -0.0006361244       -0.0001266961       -0.0001826757
O        -0.0005463003       -0.0003356058       -0.0002759535
O        -0.0001184539       -0.0005637836       -0.0000761300
O        -0.0006238362        0.0001616218       -0.0005273166
O        -0.0004620478       -0.0001335990        0.0003895972
O        -0.0006315132       -0.0003455377        0.0001782376
O        -0.0006052430       -0.0005635561        0.0001419630
O        -0.0000673034        0.0001690867        0.0004933520
O         0.0001628060       -0.0003578264        0.0005918759
O        -0.0005579814       -0.0001293858        0.0003024692
O        -0.0001316411        0.0001457225        0.0006846368
O        -0.0003311820       -0.0005567001        0.0002070759
O        -0.0005552254       -0.0003277055       -0.0002054703
O         0.0001473986       -0.0001324654       -0.0006844796
O        -0.0003561143        0.0001639743       -0.0005935448
O        -0.0001271120       -0.0005575187       -0.0003012060
O        -0.0005586708        0.0001464896       -0.0002984974
O         0.0001503020        0.0006165162       -0.0005184479
O         0.0001405610       -0.0006381410       -0.0001837593
O         0.0006113007       -0.0004794875       -0.0002204921
O         0.0001499779        0.0001468692        0.0006840519
O        -0.0005612958        0.0005933085        0.0001349042
O         0.0005825383       -0.0006357706        0.0000537005
O         0.0001490730       -0.0004641014        0.0003893115
O        -0.0004799535        0.0006112637        0.0002186995
O        -0.0006387483        0.0001421421        0.0001845987
O        -0.0006344811        0.0005869726       -0.0000545413
O        -0.0004604481        0.0001487007       -0.0003912688
O         0.0005982627       -0.0005628124       -0.0001358937
O         0.0001459603        0.0001559703       -0.0006839579
O         0.0001445624       -0.0005585947        0.0003022641
O         0.0006146625        0.0001506715        0.0005191310
O         0.0006868918        0.0001243473       -0.0000633577
O         0.0005109803        0.0003144228       -0.0002146216
O         0.0000998180        0.0005144802       -0.0000805022
O         0.0003207763        0.0006810652       -0.0001802517
O         0.0005153753        0.0001018797        0.0000796071
O         0.0006814329        0.0003222262        0.0001783451
O         0.0003163744        0.0005076502        0.0002139301
O         0.0001232150        0.0006873125        0.0000663783
O         0.0006858504       -0.0005936711       -0.0000568631
O         0.0005143645       -0.0001102111       -0.0000757535
O        -0.0003347470        0.0005107612       -0.0002088241
O        -0.0001278169        0.0006873893       -0.0001850636
O         0.0005173748       -0.0006105855        0.0001452542
O         0.0006857079       -0.0001381434        0.0000643857
O        -0.0001277780        0.0005147069        0.0003069556
O        -0.0003385698        0.0006814512        0.0001791238
O        -0.0005912118        0.0006876165        0.0000573252
O        -0.0001174386        0.0005140750        0.0000761736
O        -0.0001319767        0.0006854016       -0.0000630987
O        -0.0006107637        0.0005178582       -0.0001456215
O         0.0005147701       -0.0001258686       -0.0003074076
O         0.0006813191       -0.0003391288       -0.0001780542
O         0.0006877081       -0.0001278677        0.0001855365
O         0.0005111747       -0.0003344346        0.0002087107
O         0.0006864217        0.0001436123       -0.0001894138
O         0.0005174928        0.0006025530       -0.0001403816
O         0.0001416443        0.0005179348       -0.0003069316
O         0.0005826985        0.0006854324       -0.0000563764
O         0.0005175983        0.0001399548        0.0003075009
O         0.0006857361        0.0005827523        0.0000556984
O         0.0005985171        0.0005203421        0.0001419077
O         0.0001435568        0.0006873916        0.0001887825
     192
 i =        2, E =     -5777.9519710268
Ti         0.0000830845        0.0000839747       -0.0000012106
Ti        -0.0004430374       -0.0004446975        0.0000003421
Ti         0.0000794687       -0.0004357107        0.0004851219
Ti        -0.0004376271        0.0000800298       -0.0004847883
Ti         0.0000823958       -0.0010511667        0.0000765148
Ti        -0.0004385396       -0.0000887304        0.0004766752
Ti         0.0004129565       -0.0004462093       -0.0000162964
Ti        -0.0007450562        0.0000770902       -0.0000730734
Ti        -0.0004510864       -0.0010518004       -0.0005570579
Ti         0.0000834860       -0.0000917542        0.0000093945
Ti        -0.0007395692       -0.0004632714       -0.0004222450
Ti         0.0004055378        0.0000805297        0.0005061832
Ti        -0.0010534171        0.0000809359       -0.0000752799
Ti        -0.0000901809       -0.0004378196       -0.0004760102
Ti        -0.0000923628        0.0000861829       -0.0000090265
Ti        -0.0010522650       -0.0004539068        0.0005599282
Ti        -0.0004649415       -0.0007402313        0.0004230650
Ti         0.0000806327        0.0004045930       -0.0005050691
Ti         0.0000770764       -0.0007459170        0.0000765085
Ti        -0.0004461141        0.0004127622        0.0000213807
Ti         0.0000755773        0.0008055164       -0.0000739258
Ti        -0.0004518011        0.0010282195        0.0005504907
Ti         0.0007972286       -0.0004658176        0.0004234103
Ti         0.0010286245        0.0000809949        0.0000668776
Ti        -0.0004646784        0.0007988916       -0.0004257446
Ti         0.0000797976        0.0010287694       -0.0000675485
Ti         0.0010295069       -0.0004512981       -0.0005494180
Ti         0.0008081508        0.0000762753        0.0000714635
Ti        -0.0010465030       -0.0010481827       -0.0000009367
Ti        -0.0000924469       -0.0000936114       -0.0000011807
Ti         0.0004318589       -0.0007390714       -0.0004402174
Ti        -0.0007399225        0.0004334569        0.0004385087
Ti        -0.0000919233       -0.0010558441       -0.0000859437
Ti        -0.0010546483       -0.0000905986        0.0000848820
Ti        -0.0007366713       -0.0007386826       -0.0000013949
Ti         0.0004128903        0.0004110300       -0.0000006614
Ti         0.0004037470       -0.0000883504       -0.0004941730
Ti        -0.0007323881       -0.0010566264       -0.0001140692
Ti        -0.0010533397        0.0004198998       -0.0005762590
Ti        -0.0000881877       -0.0007455895       -0.0000697276
Ti        -0.0007485403       -0.0000882402        0.0000672690
Ti         0.0004209892       -0.0010519179        0.0005754706
Ti        -0.0000899950        0.0004069583        0.0004941190
Ti        -0.0010555384       -0.0007347267        0.0001116123
Ti        -0.0010557064        0.0007916660       -0.0001116398
Ti        -0.0000931881        0.0010295561        0.0000745577
Ti         0.0007965156       -0.0007340385        0.0000036561
Ti         0.0010295244        0.0004200225        0.0005667171
Ti        -0.0000895323        0.0008087288        0.0000642501
Ti        -0.0010478229        0.0010259660        0.0000111044
Ti         0.0010335273       -0.0007346054       -0.0000997314
Ti         0.0007968897        0.0004303549       -0.0004412767
Ti         0.0004202130        0.0010301770       -0.0005656689
Ti        -0.0007350678        0.0007979034       -0.0000007582
Ti        -0.0007358122        0.0010322117        0.0001041196
Ti         0.0004328085        0.0007979598        0.0004418425
Ti         0.0010241084       -0.0010434755       -0.0000099955
Ti         0.0008075384       -0.0000886806       -0.0000638433
Ti         0.0007929561       -0.0010547132        0.0001084607
Ti         0.0010293551       -0.0000956261       -0.0000750835
Ti         0.0007972114        0.0007943527       -0.0000003549
Ti         0.0010213425        0.0010229930       -0.0000017909
Ti         0.0007938935        0.0010323509       -0.0000985586
Ti         0.0010346671        0.0007929777        0.0000986973
O         0.0000569019        0.0001382490       -0.0000339210
O         0.0001965101       -0.0000264288        0.0005277826
O         0.0001145761        0.0001829521        0.0003026406
O        -0.0000180339        0.0000561751        0.0002122816
O         0.0001824203        0.0001156259       -0.0003028913
O         0.0000558008       -0.0000157154       -0.0002106855
O        -0.0000219293        0.0001976490       -0.0005294022
O         0.0001391058        0.0000555325        0.0000330246
O         0.0000501237        0.0002507883       -0.0004274737
O         0.0001801679       -0.0000896062        0.0003131324
O         0.0000320183        0.0001951300        0.0005571830
O         0.0000776150        0.0000396916       -0.0003335168
O         0.0002142015        0.0002329607        0.0001022155
O         0.0000553334       -0.0001111832        0.0000241544
O         0.0000730701        0.0002078829        0.0000119390
O         0.0000273989        0.0000550004       -0.0002397957
O         0.0002549508        0.0000495540        0.0004255734
O        -0.0000914433        0.0001817616       -0.0003158323
O        -0.0001119620        0.0000567151       -0.0000236579
O         0.0002330431        0.0002125100       -0.0001025247
O         0.0002065673        0.0000776945       -0.0000135833
O         0.0000569023        0.0000244142        0.0002397841
O         0.0000385206        0.0000743472        0.0003324099
O         0.0001948319        0.0000315724       -0.0005570401
O         0.0000398965       -0.0000836755       -0.0003389155
O         0.0002117603       -0.0002532789       -0.0000902188
O        -0.0000842678        0.0002060987       -0.0000176778
O        -0.0002740380        0.0000506336       -0.0004155248
O         0.0002074089       -0.0000827930        0.0000178674
O         0.0000504147       -0.0002698709        0.0004150141
O        -0.0002475221        0.0002141228        0.0000900227
O        -0.0000881467        0.0000383383        0.0003379503
O         0.0005734553        0.0000835760        0.0003547841
O        -0.0000474685       -0.0000140252        0.0002099865
O         0.0000759717       -0.0005575666        0.0005041504
O        -0.0000231702       -0.0001728801        0.0005212026
O        -0.0000477360        0.0001391355        0.0000384121
O         0.0005575363       -0.0000417343       -0.0005548182
O        -0.0000244013       -0.0005470759       -0.0007063539
O         0.0001211296       -0.0001593368       -0.0002952507
O        -0.0001730062       -0.0000231289       -0.0005204680
O        -0.0005571611        0.0000788595       -0.0005026759
O        -0.0005469151       -0.0000188632        0.0007056398
O        -0.0001581292        0.0001151372        0.0002922776
O        -0.0000398204        0.0005584359        0.0005553969
O         0.0001396722       -0.0000482917       -0.0000366122
O         0.0000846779        0.0005737564       -0.0003550915
O        -0.0000160551       -0.0000493928       -0.0002101054
O         0.0005302172        0.0002145197       -0.0001133011
O        -0.0000488681       -0.0001169894       -0.0000237646
O         0.0000298484       -0.0005462781        0.0007349576
O         0.0000754075       -0.0001859586       -0.0000197022
O        -0.0000383646        0.0002534622        0.0004304223
O         0.0005746910       -0.0000590363       -0.0003655566
O         0.0000865147       -0.0005515751       -0.0001441559
O         0.0000277228       -0.0001725650       -0.0005494091
O        -0.0001556062       -0.0000889920       -0.0003044069
O        -0.0005518769        0.0002361865       -0.0000576514
O         0.0002337723       -0.0001931711        0.0001095196
O        -0.0000499624       -0.0005577520       -0.0005133751
O        -0.0005564217       -0.0000569199        0.0005136144
O        -0.0001917316        0.0002377154       -0.0001108594
O        -0.0000907957       -0.0001553223        0.0003056390
O         0.0002398639       -0.0005517227        0.0000569557
O        -0.0005522958        0.0000827583        0.0001444360
O        -0.0001719808        0.0000295632        0.0005488429
O        -0.0000621843        0.0005718865        0.0003661328
O         0.0002556541       -0.0000380580       -0.0004307733
O        -0.0001873670        0.0000762882        0.0000190864
O        -0.0005461966        0.0000293444       -0.0007352563
O         0.0002089136        0.0005319102        0.0001124551
O        -0.0001131161       -0.0000485966        0.0000237270
O        -0.0000458572        0.0000263372       -0.0002357252
O         0.0005118651        0.0000761106        0.0000536674
O         0.0000768557       -0.0000309908        0.0003337665
O         0.0000450967        0.0005577910       -0.0005837044
O         0.0005585898        0.0000441140        0.0005835473
O        -0.0000293523        0.0000773337       -0.0003339810
O         0.0000252595       -0.0000457519        0.0002369523
O         0.0000748598        0.0005130717       -0.0000514548
O         0.0005133639       -0.0000842824       -0.0000575296
O        -0.0000411404       -0.0002730284       -0.0004162342
O        -0.0000980651       -0.0005517400        0.0001377765
O        -0.0002512766       -0.0001903736       -0.0000959715
O        -0.0000289680       -0.0000866129        0.0003405771
O         0.0005345704       -0.0002272457        0.0000976732
O        -0.0002565839       -0.0005516420       -0.0000713877
O        -0.0000829841       -0.0001884050        0.0000260196
O        -0.0001929670       -0.0002543705        0.0000953481
O        -0.0005516693       -0.0000929499       -0.0001375835
O        -0.0005509890       -0.0002534817        0.0000707126
O        -0.0001877466       -0.0000849750       -0.0000265824
O        -0.0002270115        0.0005345766       -0.0000970042
O        -0.0000873901       -0.0000280746       -0.0003410573
O        -0.0000814760        0.0005132840        0.0000590897
O        -0.0002718621       -0.0000430331        0.0004148708
O         0.0005411871        0.0000791272        0.0005068344
O        -0.0005700366       -0.0000432513        0.0005442336
O         0.0000864252       -0.0005860102        0.0003443766
O        -0.0000235659        0.0005310153        0.0007080653
O        -0.0005849655        0.0000879257       -0.0003438658
O         0.0005299905       -0.0000222150       -0.0007066041
O        -0.0000402376       -0.0005708342       -0.0005459945
O         0.0000773468        0.0005410961       -0.0005049198
O         0.0005354205        0.0002341063        0.0000546485
O        -0.0005861578       -0.0000621879        0.0003561570
O         0.0000462617       -0.0005693027        0.0005748038
O         0.0000849172        0.0005341024        0.0001379693
O        -0.0005440821        0.0002131925        0.0001204818
O         0.0005428285       -0.0000514608       -0.0005143959
O         0.0000766533       -0.0005231266        0.0000594262
O         0.0000303293        0.0005299138       -0.0007341258
O         0.0002376141        0.0005347016       -0.0000547024
O        -0.0000649755       -0.0005877769       -0.0003554074
O        -0.0000494587        0.0005421749        0.0005169579
O         0.0002137214       -0.0005434253       -0.0001213364
O        -0.0005234105        0.0000767007       -0.0000602155
O         0.0005304570        0.0000292732        0.0007343736
O         0.0005336825        0.0000840183       -0.0001383480
O        -0.0005680230        0.0000538610       -0.0005742730
O         0.0005336412       -0.0000938910        0.0001302712
O        -0.0005467237       -0.0002308306       -0.0001062585
O        -0.0000815457       -0.0005224351       -0.0000647347
O        -0.0002542956        0.0005351117        0.0000692389
O        -0.0005204928       -0.0000870202        0.0000648935
O         0.0005347474       -0.0002506737       -0.0000692609
O        -0.0002299483       -0.0005455523        0.0001060356
O        -0.0000967900        0.0005345253       -0.0001301843
     192
 i =        3, E =     -5777.9522637326
Ti         0.0001013388        0.0001020222       -0.0000002957
Ti        -0.0000323174       -0.0000335316        0.0000006698
Ti         0.0000941569       -0.0000246440        0.0004351985
Ti        -0.0000270631        0.0000944632       -0.0004369266
Ti         0.0000928696       -0.0000625790        0.0002830794
Ti        -0.0000272288       -0.0000845703        0.0004273911
Ti         0.0000321286       -0.0000334833       -0.0000253596
Ti        -0.0003885378        0.0000840295        0.0003852512
Ti        -0.0000367110       -0.0000723797       -0.0007075298
Ti         0.0001022169       -0.0000933957        0.0000082118
Ti        -0.0003922738       -0.0000502521       -0.0008160356
Ti         0.0000258861        0.0000941074        0.0004626403
Ti        -0.0000633953        0.0000923082       -0.0002814222
Ti        -0.0000854150       -0.0000260180       -0.0004260548
Ti        -0.0000943383        0.0001034652       -0.0000086042
Ti        -0.0000730514       -0.0000376033        0.0007089483
Ti        -0.0000509397       -0.0003926995        0.0008167905
Ti         0.0000942584        0.0000242665       -0.0004611186
Ti         0.0000844158       -0.0003898761       -0.0003838720
Ti        -0.0000345647        0.0000315861        0.0000263786
Ti         0.0000829699        0.0003982909        0.0003800485
Ti        -0.0000371607        0.0000511154        0.0006861433
Ti         0.0003993264       -0.0000496122        0.0008108732
Ti         0.0000426801        0.0000927929        0.0002594924
Ti        -0.0000500723        0.0004005147       -0.0008129681
Ti         0.0000931067        0.0000421908       -0.0002610959
Ti         0.0000517937       -0.0000375032       -0.0006850474
Ti         0.0003995639        0.0000834694       -0.0003817366
Ti        -0.0000777280       -0.0000781502        0.0000002766
Ti        -0.0000946030       -0.0000947925       -0.0000003462
Ti         0.0000469682       -0.0003927525       -0.0008411508
Ti        -0.0003920250        0.0000483060        0.0008404816
Ti        -0.0000836669       -0.0000650497       -0.0002925355
Ti        -0.0000641734       -0.0000831159        0.0002917377
Ti        -0.0004123954       -0.0004127745       -0.0000008509
Ti         0.0000310639        0.0000310832       -0.0000003629
Ti         0.0000248682       -0.0000851530       -0.0004525731
Ti        -0.0003990239       -0.0000922564        0.0001321549
Ti        -0.0000716092        0.0000337252       -0.0007330872
Ti        -0.0000756920       -0.0003891398        0.0003928363
Ti        -0.0003904186       -0.0000760979       -0.0003932381
Ti         0.0000350979       -0.0000724844        0.0007333147
Ti        -0.0000860267        0.0000268357        0.0004514258
Ti        -0.0000917431       -0.0004002413       -0.0001338198
Ti        -0.0000904087        0.0004064359        0.0001264137
Ti        -0.0000854699        0.0000425902        0.0002687774
Ti         0.0004193278       -0.0004111055       -0.0000068858
Ti         0.0000524817        0.0000361530        0.0007114741
Ti        -0.0000764988        0.0003984811       -0.0003899887
Ti        -0.0000783727        0.0000590299        0.0000232677
Ti         0.0000739686       -0.0003988378        0.0001560492
Ti         0.0003991822        0.0000452071       -0.0008351944
Ti         0.0000355121        0.0000529444       -0.0007108095
Ti        -0.0004112633        0.0004202508        0.0000081455
Ti        -0.0004007007        0.0000725596       -0.0001544348
Ti         0.0000465241        0.0003998847        0.0008358705
Ti         0.0000586279       -0.0000767370       -0.0000217387
Ti         0.0003979912       -0.0000775037        0.0003894852
Ti         0.0004070213       -0.0000902037       -0.0001266628
Ti         0.0000431823       -0.0000869505       -0.0002676906
Ti         0.0004196830        0.0004184727       -0.0000003619
Ti         0.0000578336        0.0000580962       -0.0000002810
Ti         0.0004054764        0.0000728738        0.0001483026
Ti         0.0000736287        0.0004064504       -0.0001490214
O        -0.0000846656       -0.0001656894        0.0002323046
O        -0.0000162739        0.0000371638        0.0006680487
O        -0.0001738913       -0.0000134218        0.0001891758
O         0.0000580586       -0.0000852072        0.0006939753
O        -0.0000138535       -0.0001729649       -0.0001902289
O        -0.0000848749        0.0000575335       -0.0006941871
O         0.0000392175       -0.0000173751       -0.0006678246
O        -0.0001647874       -0.0000837538       -0.0002318491
O        -0.0000784563        0.0002374250       -0.0001123377
O        -0.0000134139        0.0001939501        0.0001891877
O        -0.0000277658       -0.0000171872        0.0006850684
O         0.0002180908       -0.0000742840       -0.0000446361
O        -0.0000075390        0.0002251073        0.0001799237
O        -0.0000839361        0.0001873232       -0.0002304245
O         0.0002097779        0.0000004989        0.0001375281
O        -0.0000467574       -0.0000847975       -0.0007106630
O         0.0002391247       -0.0000786281        0.0001126878
O         0.0001932962       -0.0000134192       -0.0001899278
O         0.0001880617       -0.0000839261        0.0002306583
O         0.0002247729       -0.0000082185       -0.0001798855
O         0.0000021211        0.0002126056       -0.0001385542
O        -0.0000859519       -0.0000489101        0.0007107254