     192
 i =        1, E =     -5777.9513600141
Ti        -0.0007036028       -0.0007073469       -0.0000009164
Ti         1.8926696207        1.8926786507        4.8075059948
Ti        -0.0006776985        1.8926798201        2.4026390588
Ti         1.8926940365       -0.0006832505        7.2123734307
Ti        -0.0006556621        3.7811681157        0.0016880419
Ti         1.8927063069       13.2394859556        4.8063792141
Ti        11.3461647539        1.8926739394        2.4037174343
Ti         5.6738564510       -0.0006529691        7.2133584005
Ti         1.8926433529        3.7811904767        7.2106971060
Ti        -0.0007016715       13.2394915179        2.4037776825
Ti         5.6738690456        1.8926419689        4.8065265996
Ti        11.3461377875       -0.0006791882       -0.0010895086
Ti         3.7811701993       -0.0006460312       -0.0016869333
Ti        13.2394734431        1.8926917795        4.8086337340
Ti        13.2395049125       -0.0007111093        7.2112611916
Ti         3.7811966937        1.8926610900        2.4043281805
Ti         1.8926382655        5.6738704523        4.8084847927
Ti        -0.0006829692       11.3461478221        0.0010846563
Ti        -0.0006542130        5.6738556670        2.4016510298
Ti         1.8926864322       11.3461612130        7.2112955248
Ti        -0.0006457084        7.5650952091        0.0020836557
Ti         1.8926737354        9.4577215106        4.8080499528
Ti         7.5650946983        1.8926467079        2.4047270120
Ti         9.4577399379       -0.0006636146        7.2129300733
Ti         1.8926425458        7.5650862273        7.2103030496
Ti        -0.0006521520        9.4577333040        2.4020941541
Ti         9.4577143176        1.8926630087        4.8069696389
Ti         7.5650789759       -0.0006374130       -0.0020839862
Ti         3.7811941181        3.7812045155        0.0000005038
Ti        13.2395029233       13.2395069702        4.8075057368
Ti        11.3462096279        5.6738607096        2.4027480020
Ti         5.6738703363       11.3461952104        7.2122728953
Ti        13.2394482903        3.7811774444        7.2095752001
Ti         3.7811788678       13.2394491940        2.4054578776
Ti         5.6738672687        5.6738706848        4.8075104300
Ti        11.3461630729       11.3461682606       -0.0000002694
Ti        11.3461502986       13.2394733458        2.4048587135
Ti         5.6738595099        3.7811947902        7.2116852263
Ti         3.7812004499       11.3462054417       -0.0006013183
Ti        13.2394460355        5.6738553662        4.8096232617
Ti         5.6738752943       13.2394559679        4.8054062370
Ti        11.3461852819        3.7811959929        0.0005946462
Ti        13.2394755422       11.3461315190        7.2101681248
Ti         3.7811907781        5.6738639709        2.4033454926
Ti         3.7811989833        7.5651029785        0.0004067196
Ti        13.2394736905        9.4577371716        4.8091830966
Ti         7.5650938071        5.6738537831        2.4037383887
Ti         9.4577159903       11.3461785579        7.2118376293
Ti        13.2394491097        7.5650794269        7.2091785739
Ti         3.7811910095        9.4577013614        2.4037841517
Ti         9.4577219092        5.6738772388        4.8079505897
Ti         7.5650953512       11.3462157478       -0.0009921409
Ti        11.3461967782        9.4577173630        2.4031839190
Ti         5.6738525438        7.5650852872        7.2112742764
Ti         5.6738719471        9.4577318047        4.8070648823
Ti        11.3462038916        7.5650896362        0.0009880684
Ti         9.4577122444        3.7811806582        7.2112414623
Ti         7.5650874906       13.2394496198        2.4058436826
Ti         7.5650847039        3.7811937329       -0.0004037290
Ti         9.4577407172       13.2394764943        4.8058376706
Ti         7.5650901378        7.5650973740        0.0000006357
Ti         9.4577297642        9.4577312449        4.8075113552
Ti         7.5650832890        9.4577202475        2.4041769741
Ti         9.4577090992        7.5650808315        7.2108438556
O         0.0012744195        0.0026186603        1.9910450067
O         1.8842209849        1.8897517802        6.7967093749
O         0.0025971347        1.8840290132        4.3939676400
O         1.8896910518        0.0012614306        9.2012360577
O         1.8840129820        0.0026048757        5.2210553688
O         0.0012690244        1.8896874086        0.4137767382
O         1.8897453985        1.8842001154        2.8183124018
O         0.0026312829        0.0012936572        7.6239728852
O         0.0012617554        3.7816427371        1.9909794071
O         1.8840145480       13.2361501421        6.7977076289
O        11.3490682250        1.8841968337        4.3929202459
O         5.6727750000        0.0012483895        9.2026059288
O         1.8844394307        3.7816627081        5.2209757530
O         0.0012951801       13.2361239295        0.4127208037
O         5.6727986657        1.8844960629        2.8168289970
O        11.3491316257        0.0012711361        7.6250647895
O         3.7816417075        0.0012697676        7.6240447258
O        13.2361599063        1.8840197319        2.8173152613
O        13.2361202605        0.0012757876        9.2023133032
O         3.7816616561        1.8844450548        4.3940523606
O         1.8845347849        5.6727847950        6.7981890755
O         0.0012602670       11.3491289332        1.9899533600
O         0.0012777449        5.6727872474        0.4124140728
O         1.8841721629       11.3490827322        5.2220952548
O         0.0012602528        7.5662026540        1.9913253315
O         1.8844178279        9.4572495431        6.7977778975
O         7.5662014875        1.8845248928        4.3944186536
O         9.4572603073        0.0012481282        9.2022303698
O         1.8845034464        7.5661990771        5.2206101767
O         0.0012647763        9.4572610950        0.4127958370
O         9.4572412701        1.8844135474        2.8172399326
O         7.5662154345        0.0012708663        7.6236989909
O         3.7747633173        0.0025785963        1.9897339836
O        13.2372099532        1.8896881712        6.7974796999
O         0.0025613711        5.6704443261        4.3931885989
O         1.8897475580       11.3544597928        9.2004932563
O        13.2371544557        0.0026269173        5.2202122759
O         3.7748601679        1.8898104692        0.4149587572
O         1.8898192354        5.6704645101        2.8189691488
O         0.0025921904       11.3546837293        7.6247785995
O        11.3544766046        1.8897490629        0.4145244782
O         5.6704215370        0.0025667614        5.2218224303
O         5.6704698279        1.8898129170        6.7960436025
O        11.3546852454        0.0025961047        1.9902468199
O         1.8898042500        3.7748546034        9.2000660160
O         0.0026293564       13.2371524339        4.3948172173
O         0.0025701985        3.7747565838        7.6252844948
O         1.8896913056       13.2372248675        2.8175338123
O         3.7749708917        3.7816771733        1.9900226017
O        13.2371756678       13.2361277877        6.7985335499
O        11.3490065752        5.6704491585        4.3922573606
O         5.6727952970       11.3541481906        9.2019578334
O        13.2372185896        3.7816405428        5.2202876945
O         3.7747444525       13.2361892473        0.4140340190
O         5.6727932109        5.6704628846        2.8172075421
O        11.3490796612       11.3545117242        7.6258242078
O        11.3546654950       13.2361539738        0.4135268084
O         5.6704503381        3.7816824638        5.2214494408
O         3.7816677224       11.3542582013        7.6247081029
O        13.2361912061        5.6704477477        2.8180827709
O         5.6704480040       13.2361962179        6.7969417559
O        11.3542507304        3.7816505650        1.9903115020
O        13.2361535938       11.3546669198        9.2014957052
O         3.7816732795        5.6704613494        4.3935889513
O         5.6704689948        5.6728018387        6.7978166125
O        11.3544778262       11.3490817803        1.9891967611
O        13.2361858947        3.7747648698        9.2009933508
O         3.7816496948       13.2371842433        4.3947399169
O        11.3541671471        5.6727890092        0.4130687825
O         5.6704333751       11.3490176781        5.2227637936
O         3.7816807975        3.7749608092        7.6249981252
O        13.2361284587       13.2371875609        2.8164690411
O        13.2371892240       11.3491327635        5.2213081387
O         3.7749987062        5.6728013400        0.4132821667
O         5.6727830233       13.2372525604        2.8161804173
O        11.3490226191        3.7748528819        7.6262506918
O         3.7748459096       11.3490173617        1.9887692918
O        13.2372407060        5.6727783877        6.7988450153
O        11.3491303138       13.2371824399        4.3937178295
O         5.6727978366        3.7749926452        9.2017392433
O         3.7749965967        7.5661869027        1.9904530618
O        13.2372421642        9.4572561163        6.7984635344
O         7.5662058814        5.6704543763        4.3940456891
O         9.4572460053       11.3542449577        9.2015524846
O        13.2372263611        7.5662067794        5.2199482693
O         3.7749402181        9.4572382181        0.4137684513
O         9.4572358978        5.6704716110        2.8177195607
O         7.5661982112       11.3541816771        7.6243430216
O        11.3542553451        9.4572499893        0.4134751971
O         5.6704444659        7.5661966989        5.2209677613
O         5.6704742019        9.4572230008        6.7972994010
O        11.3541644170        7.5662020222        1.9906824380
O         9.4572235189        3.7749474949        9.2012580010
O         7.5662141323       13.2371971787        4.3950768244
O         7.5661872179        3.7749972940        7.6245566453
O         9.4572596264       13.2372469455        2.8165585805
O         7.5688015196        0.0025627523        1.9894457516
O         9.4640850860        1.8897986959        6.7963199348
O         0.0025918457        9.4641902049        4.3935007552
O         1.8898246860        7.5687576378        9.1998120311
O         9.4641832907        0.0025837121        5.2215233403
O         7.5687758926        1.8898224045        0.4152163828
O         1.8897966613        9.4641016701        2.8187048364
O         0.0025665836        7.5688084128        7.6255634690
O         7.5687522137        3.7816807859        1.9898311404
O         9.4641943044       13.2361737533        6.7972359283
O        11.3490343725        9.4640829222        4.3925317163
O         5.6727981300        7.5687618156        9.2015785595
O         9.4639823545        3.7816820951        5.2212451177
O         7.5687781360       13.2362013244        0.4143034763
O         5.6727872196        9.4639341734        2.8170359576
O        11.3490038719        7.5687842371        7.6264957710
O         3.7816748802        7.5687639504        7.6251889879
O        13.2361918431        9.4641990786        2.8177817098
O        13.2361899765        7.5687782519        9.2007072517
O         3.7816829940        9.4639771409        4.3937784076
O         9.4639345025        5.6727877388        6.7979827961
O         7.5687799002       11.3490091223        1.9885174933
O         7.5687698664        5.6727985523        0.4134402778
O         9.4640777655       11.3490256468        5.2224920272
O         7.5687651818        7.5661904714        1.9903116823
O         9.4639912430        9.4572254954        6.7975108686
O         7.5661877542        9.4639167533        4.3942097272
O         9.4572316554        7.5687622312        9.2010701123
O         9.4639098537        7.5662102533        5.2208093548
O         7.5687632326        9.4572278451        0.4139538147
O         9.4572304628        9.4639750899        2.8175125632
O         7.5661922240        7.5687633645        7.6247126541
     192
 i =        2, E =     -5777.9519710268
Ti         0.0006355635        0.0006268099        0.0000028763
Ti         1.8901659788        1.8901750924        4.8075069563
Ti         0.0006228468        1.8900920523        2.4016774385
Ti         1.8901016910        0.0006220284        7.2133388403
Ti         0.0006240994        3.7784414287        0.0027814468
Ti         1.8901129064       13.2379912614        4.8054089836
Ti        11.3485786508        1.8901668139        2.4036871920
Ti         5.6727447603        0.0006082138        7.2153565580
Ti         1.8902506197        3.7784833136        7.2105419049
Ti         0.0006336751       13.2379708306        2.4037845095
Ti         5.6727714696        1.8902723224        4.8055040502
Ti        11.3486411955        0.0006189297       -0.0020224841
Ti         3.7784445721        0.0006348549       -0.0027757444
Ti        13.2379891874        1.8901038558        4.8096107904
Ti        13.2379798940        0.0006224638        7.2112436802
Ti         3.7784928990        1.8902629258        2.4044747528
Ti         1.8902708941        5.6727772999        4.8095147391
Ti         0.0006204684       11.3486459244        0.0020167873
Ti         0.0006068229        5.6727481522        2.3996513915
Ti         1.8901751618       11.3485782134        7.2113213566
Ti         0.0006151907        7.5663507673        0.0040641424
Ti         1.8902644792        9.4604578096        4.8081542925
Ti         7.5663375390        1.8902768926        2.4057293590
Ti         9.4604922589        0.0006230388        7.2139757158
Ti         1.8902717516        7.5663267166        7.2092956429
Ti         0.0006329493        9.4604913802        2.4010524780
Ti         9.4604555033        1.8902619141        4.8068670991
Ti         7.5663375491        0.0006187142       -0.0040602223
Ti         3.7785328491        3.7785461656        0.0000015660
Ti        13.2379855546       13.2379856824        4.8075169814
Ti        11.3484903431        5.6727686643        2.4016849647
Ti         5.6727745408       11.3484778421        7.2133379073
Ti        13.2379888276        3.7784461011        7.2084694342
Ti         3.7784544553       13.2379908590        2.4065609818
Ti         5.6727992777        5.6728064556        4.8075092501
Ti        11.3485823385       11.3485888676        0.0000017770
Ti        11.3486529350       13.2379876320        2.4057994005
Ti         5.6727874021        3.7785251185        7.2124697482
Ti         3.7784871526       11.3485071353       -0.0007797571
Ti        13.2380128147        5.6727466439        4.8116341416
Ti         5.6727629640       13.2380111587        4.8033938570
Ti        11.3484892205        3.7784836767        0.0007807137
Ti        13.2379929013       11.3486323581        7.2092218418
Ti         3.7785213194        5.6727963676        2.4025540718
Ti         3.7785265506        7.5663117411        0.0011776832
Ti        13.2380050114        9.4604918695        4.8102406440
Ti         7.5663057996        5.6727930216        2.4037199019
Ti         9.4604580866       11.3484937908        7.2119667063
Ti        13.2380110677        7.5663385495        7.2071833031
Ti         3.7785370686        9.4604009067        2.4038236908
Ti         9.4604207984        5.6728057562        4.8087871027
Ti         7.5663375771       11.3484948125       -0.0020358081
Ti        11.3485042386        9.4604522607        2.4030481282
Ti         5.6727903378        7.5662980105        7.2112920647
Ti         5.6728032625        9.4604250354        4.8062236831
Ti        11.3484826123        7.5663342401        0.0020314301
Ti         9.4603973083        3.7785250657        7.2111916916
Ti         7.5663509205       13.2380136064        2.4078361793
Ti         7.5662977641        3.7785267429       -0.0011728090
Ti         9.4605004611       13.2380079014        4.8047824233
Ti         7.5662981471        7.5663094118        0.0000011592
Ti         9.4604197682        9.4604146491        4.8075104479
Ti         7.5663050347        9.4604162232        2.4049965114
Ti         9.4604072154        7.5663021922        7.2100225597
O         0.0009752812        0.0015298165        1.9894025238
O         1.8844280620        1.8890229827        6.7942850659
O         0.0015762301        1.8843943189        4.3924101456
O         1.8889740189        0.0010063114        9.1987661883
O         1.8843971673        0.0015754688        5.2226134680
O         0.0010071204        1.8889684144        0.4162498930
O         1.8890147318        1.8844230079        2.8207379419
O         0.0015311683        0.0009804146        7.6256212641
O         0.0010147230        3.7785870225        1.9899685987
O         1.8844067336       13.2370088299        6.7961390718
O        11.3496920400        1.8844316881        4.3904631249
O         5.6715612694        0.0010344739        9.2020720642
O         1.8843501487        3.7786568879        5.2219365335
O         0.0009826105       13.2370434367        0.4143763083
O         5.6715968619        1.8843654430        2.8173350858
O        11.3497354111        0.0010097688        7.6275725458
O         3.7785812546        0.0010191612        7.6250539167
O        13.2370106121        1.8843991093        2.8188903048
O        13.2370478028        0.0009732487        9.2006418339
O         3.7786558775        1.8843622100        4.3930793375
O         1.8843717353        5.6715792794        6.7976930049
O         0.0010043476       11.3497407838        1.9874483070
O         0.0010377412        5.6715723225        0.4129486956
O         1.8844327190       11.3496963327        5.2245507885
O         0.0010333904        7.5675562367        1.9907641820
O         1.8843661120        9.4602842919        6.7967667128
O         7.5675423126        1.8843768848        4.3938918173
O         9.4603523205        0.0010111648        9.2011704584
O         1.8843702224        7.5675391454        5.2211356184
O         0.0010161027        9.4603426505        0.4138565482
O         9.4602694035        1.8843553737        2.8182540942
O         7.5675657463        0.0010397065        7.6242625734
O         3.7679592851        0.0016480777        1.9883325480
O        13.2374348524        1.8889660216        6.7950029477
O         0.0016690857        5.6651433265        4.3913073292
O         1.8890152766       11.3540675468        9.1980680944
O        13.2374597884        0.0015326415        5.2218574279
O         3.7681381207        1.8891155419        0.4172116513
O         1.8891281131        5.6652050197        2.8216388726
O         0.0015650091       11.3541014878        7.6263341650
O        11.3540704705        1.8890130321        0.4169411359
O         5.6651098746        0.0016647215        5.2236995925
O         5.6652195666        1.8891166959        6.7933786072
O        11.3540964774        0.0015738277        1.9886932758
O         1.8891087400        3.7681341677        9.1978069166
O         0.0015315915       13.2374610861        4.3931539088
O         0.0016446137        3.7679550781        7.6266873442
O         1.8889724198       13.2374444356        2.8200182708
O         3.7682535691        3.7787646479        1.9892916531
O        13.2374655684       13.2370556559        6.7968731763
O        11.3495994149        5.6651838722        4.3895510140
O         5.6715852121       11.3541319556        9.2014720702
O        13.2374154190        3.7785842148        5.2213000698
O         3.7679523160       13.2369429618        0.4154484310
O         5.6716152656        5.6651638022        2.8176103170
O        11.3497057269       11.3540722876        7.6282741802
O        11.3540862596       13.2370056968        0.4150908948
O         5.6651500749        3.7788000417        5.2224006912
O         3.7786562250       11.3541566068        7.6256661964
O        13.2369195575        5.6651528708        2.8199753023
O         5.6651626019       13.2369313919        6.7950436683
O        11.3541482137        3.7786417970        1.9893587037
O        13.2370087517       11.3540837532        9.1999285778
O         3.7787876459        5.6651714647        4.3926265558
O         5.6651766911        5.6716295130        6.7974159066
O        11.3540675886       11.3497043505        1.9867527074
O        13.2369462274        3.7679636907        9.1995721831
O         3.7785816861       13.2374129103        4.3937219993
O        11.3541384178        5.6715799575        0.4135541717
O         5.6651566352       11.3495977706        5.2254746187
O         3.7787753646        3.7682466936        7.6257370626
O        13.2370501712       13.2374643733        2.8181458097
O        13.2374296021       11.3497355077        5.2238191394
O         3.7683343600        5.6716202458        0.4135587078
O         5.6715724555       13.2374127960        2.8167164072
O        11.3496123863        3.7681343556        7.6285452072
O         3.7681336711       11.3496181167        1.9864803644
O        13.2374062097        5.6715616280        6.7983096058
O        11.3497403460       13.2374269616        4.3912009365
O         5.6716230551        3.7683286624        9.2014610350
O         3.7683272676        7.5675044682        1.9901540578
O        13.2374263505        9.4603492519        6.7974021651
O         7.5675154970        5.6651437908        4.3936134302
O         9.4602784359       11.3541431181        9.2005430441
O        13.2374015699        7.5675554694        5.2205120779
O         3.7682312779        9.4601615376        0.4145514493
O         9.4601427502        5.6651838515        2.8187352533
O         7.5675411378       11.3541466456        7.6248556324
O        11.3541549206        9.4602858769        0.4144797897
O         5.6651260101        7.5675014658        5.2214021294
O         5.6651954430        9.4601346393        6.7962815058
O        11.3541441721        7.5675452219        1.9901651547
O         9.4601569011        3.7682324134        9.2004661188
O         7.5675619349       13.2373966567        4.3945147436
O         7.5674929845        3.7683286239        7.6248617727
O         9.4603497430       13.2374353699        2.8176251651
O         7.5745639037        0.0016650760        1.9875789328
O         9.4705449726        1.8891107229        6.7940770229
O         0.0016449915        9.4707181710        4.3921128565
O         1.8891276694        7.5744666408        9.1971552077
O         9.4707139101        0.0016412187        5.2229091566
O         7.5744949701        1.8891262565        0.4178622795
O         1.8891080254        9.4705484115        2.8209490801
O         0.0016688183        7.5745762270        7.6274327539
O         7.5744895609        3.7788015633        1.9888866930
O         9.4707233248       13.2369484051        6.7958344406
O        11.3496166726        9.4705404377        4.3902510486
O         5.6716180859        7.5745136024        9.2011804982
O         9.4704372972        3.7787618097        5.2219722604
O         7.5745233678       13.2369213204        0.4161874224
O         5.6716136778        9.4703527692        2.8173044631
O        11.3495962558        7.5745070125        7.6291952447
O         3.7787948518        7.5745169086        7.6261337368
O        13.2369559030        9.4707282307        2.8191823201
O        13.2369180898        7.5745217128        9.1988195215
O         3.7787588420        9.4704329278        4.3930462604
O         9.4703534688        5.6716181116        6.7977102768
O         7.5745000299       11.3496006424        1.9858206693
O         7.5745270694        5.6716227372        0.4138403315
O         9.4705358090       11.3496003190        5.2247678449
O         7.5745125910        7.5675020146        1.9898771541
O         9.4704506038        9.4601740678        6.7967292955
O         7.5674909755        9.4703474840        4.3939087156
O         9.4601364334        7.5745012040        9.2000562741
O         9.4703357854        7.5675153218        5.2211095619
O         7.5745044747        9.4601295581        0.4149667522
O         9.4601703880        9.4704448900        2.8182983062
O         7.5675074758        7.5745158504        7.6251465911
     192
 i =        3, E =     -5777.9522637326
Ti         0.0005875098        0.0005835848        0.0000005988
Ti         1.8888856098        1.8888938901        4.8075047962
Ti         0.0006039199        1.8888428214        2.4023138572
Ti         1.8888541756        0.0006015869        7.2127064172
Ti         0.0006375847        3.7758128689        0.0027536835
Ti         1.8888652487       13.2379466439        4.8060458752
Ti        11.3497938132        1.8888861031        2.4036970615
Ti         5.6711932576        0.0006365100        7.2157574737
Ti         1.8889434682        3.7758523870        7.2098969786
Ti         0.0005867645       13.2379552972        2.4037828403
Ti         5.6712127103        1.8889626949        4.8044192725
Ti        11.3498221991        0.0006008677       -0.0013955509
Ti         3.7758142723        0.0006474834       -0.0027495912
Ti        13.2379440054        1.8888542146        4.8089725299
Ti        13.2379660134        0.0005776509        7.2112465245
Ti         3.7758626114        1.8889547525        2.4051210498
Ti         1.8889603928        5.6712186710        4.8105977597
Ti         0.0006019042       11.3498304999        0.0013871577
Ti         0.0006362524        5.6711962153        2.3992528250
Ti         1.8888966219       11.3497912034        7.2113172766
Ti         0.0006454880        7.5680269601        0.0044294686
Ti         1.8889593241        9.4630607092        4.8087742003
Ti         7.5680198678        1.8889659232        2.4067797872
Ti         9.4630925264        0.0006317017        7.2139237000
Ti         1.8889621836        7.5680089887        7.2082450107
Ti         0.0006376746        9.4630930261        2.4011060714
Ti         9.4630593588        1.8889588895        4.8062461821
Ti         7.5680163734        0.0006484520       -0.0044260399
Ti         3.7759336711        3.7759439628       -0.0000003952
Ti        13.2379725765       13.2379705279        4.8075170266
Ti        11.3497344142        5.6712147846        2.4006091287
Ti         5.6712177826       11.3497212949        7.2144120638
Ti        13.2379074051        3.7758153378        7.2084999305
Ti         3.7758239700       13.2379104342        2.4065292238
Ti         5.6712312373        5.6712378380        4.8075079602
Ti        11.3497966395       11.3498002225        0.0000010461
Ti        11.3498327639       13.2379434074        2.4051709998
Ti         5.6712235388        3.7759227692        7.2128778765
Ti         3.7758538865       11.3497485346       -0.0014167339
Ti        13.2379163855        5.6711941833        4.8120278438
Ti         5.6712064316       13.2379170957        4.8029966890
Ti        11.3497295998        3.7758531271        0.0014167099
Ti        13.2379495681       11.3498124285        7.2098538365
Ti         3.7759189439        5.6712310369        2.4021446920
Ti         3.7759265164        7.5680001192        0.0015576246
Ti        13.2379247423        9.4630939293        4.8101841815
Ti         7.5679973730        5.6712307537        2.4036962672
Ti         9.4630591106       11.3497297326        7.2125770685
Ti        13.2379124578        7.5680186375        7.2068211128
Ti         3.7759359217        9.4629730855        2.4038508641
Ti         9.4629904457        5.6712378618        4.8092281557
Ti         7.5680161345       11.3497383567       -0.0030782924
Ti        11.3497387335        9.4630538591        2.4024368448
Ti         5.6712278711        7.5679904739        7.2113182937
Ti         5.6712372605        9.4629954282        4.8057858062
Ti        11.3497276971        7.5680128244        0.0030725456
Ti         9.4629665646        3.7759277899        7.2111634526
Ti         7.5680299413       13.2379162296        2.4082009721
Ti         7.5679884539        3.7759287500       -0.0015562247
Ti         9.4631003155       13.2379334787        4.8048364756
Ti         7.5679891323        7.5679985076        0.0000011704
Ti         9.4629877758        9.4629872597        4.8075090164
Ti         7.5679972886        9.4629838321        2.4054091399
Ti         9.4629767655        7.5679935151        7.2096105447
O         0.0013725532        0.0016289735        1.9886361336
O         1.8847422796        1.8876661200        6.7940687003
O         0.0016364460        1.8846507396        4.3929484166
O         1.8876149912        0.0014111750        9.1973009857
O         1.8846540053        0.0016355219        5.2220781015
O         0.0014087258        1.8876144779        0.4177214946
O         1.8876618649        1.8847459527        2.8209494300
O         0.0016303957        0.0013679201        7.6263827925
O         0.0013869065        3.7768601267        1.9881694492
O         1.8846528557       13.2368937298        6.7967042421
O        11.3509952085        1.8847428742        4.3903208833
O         5.6709881589        0.0013544295        9.2013887560
O         1.8847092649        3.7768949768        5.2224210728
O         0.0013693491       13.2368955431        0.4151136676
O         5.6710189436        1.8846818304        2.8167106292
O        11.3510438161        0.0014071452        7.6289707504
O         3.7768584507        0.0013878751        7.6268473416
O        13.2368948635        1.8846514500        2.8183202631
O        13.2368959179        0.0013687318        9.1999030524
O         3.7768955555        1.8847139260        4.3925939010
O         1.8846757406        5.6710048045        6.7983146996
O         0.0014130849       11.3510479050        1.9860486324