     192
 i =        1, E =     -5776.6392036919
Ti        -0.0630264124        0.0971470619        0.0641701759
Ti         1.8655474160        1.9225429956        4.8975656547
Ti         0.0462821758        2.0289249564        2.5286797579
Ti         1.8626965779       -0.0448053774        7.1744679160
Ti        -0.0314669920        3.8287141683       -0.0526659353
Ti         1.9485515907       13.1904736564        4.8328843181
Ti        11.2887536925        1.9803977134        2.4499868666
Ti         5.6062850694       -0.0894759327        7.2224076436
Ti         1.9038900162        3.8189826867        7.2346814914
Ti         0.0276178017       13.3441338037        2.4747526935
Ti         5.6774986213        1.8318270179        4.8269694081
Ti        11.3020763810        0.1144780696       -0.0432235446
Ti         3.6782833029        0.0953172221        0.0501481725
Ti        13.1227507811        1.7709319526        4.7059119580
Ti        13.2642489238       -0.0455155017        7.1542640815
Ti         3.7518959317        1.8039335888        2.5191203675
Ti         1.9705048006        5.6383245218        4.8516568921
Ti         0.0063139115       11.5802334122       -0.0005849761
Ti        -0.0205639941        5.7246851251        2.4875880887
Ti         1.9030390124       11.3205548796        7.3594245307
Ti         0.0686011120        7.4881440245        0.0492568668
Ti         2.0406539349        9.5181055462        4.9038073226
Ti         7.4996955388        1.9547288406        2.3532397504
Ti         9.4662782517       -0.1296997607        7.2270415997
Ti         1.9470088749        7.5768971434        7.1608851482
Ti         0.1326314353        9.5816762279        2.4867286224
Ti         9.3290642117        1.8084085172        4.7659809005
Ti         7.4654987198       -0.0619198962       -0.0782413374
Ti         3.7306294070        3.7824422170       -0.0055339526
Ti        13.2342815542       13.1269374519        4.7435553410
Ti        11.3763797312        5.7270072001        2.3760455022
Ti         5.6752801214       11.3271675787        7.1530142672
Ti        13.1716558445        3.6793929460        7.2421519401
Ti         3.7736100427       13.1635055118        2.4444027972
Ti         5.6770518010        5.7207513639        4.8443397715
Ti        11.2243430427       11.3884771980        0.1052989617
Ti        11.2860199137       13.3368536741        2.3545064255
Ti         5.6544325757        3.7264523079        7.1304215261
Ti         3.8817041318       11.4216381261        0.0417461018
Ti        13.2849937944        5.5846525016        4.8986031333
Ti         5.7955069604       13.2070884393        4.8093162781
Ti        11.2708762297        3.7913100047       -0.0769017053
Ti        13.0936608006       11.3812123685        7.2640272713
Ti         3.7938183849        5.6140147206        2.3921775645
Ti         3.7989455581        7.5559410011        0.0467256628
Ti        13.2995251935        9.4202213105        4.8376652518
Ti         7.5242193817        5.6755209553        2.3900829830
Ti         9.4243079336       11.1457771511        7.1753479364
Ti        13.3032461433        7.5406829414        7.2330678552
Ti         3.8871393211        9.4472428917        2.3376919073
Ti         9.5190135370        5.5590913559        4.7070439707
Ti         7.5315526808       11.3450090282        0.0666315533
Ti        11.4031054006        9.4501214339        2.4129909364
Ti         5.6586549277        7.6050572316        7.1989479487
Ti         5.7765923047        9.4244315868        4.7444589245
Ti        11.3228914759        7.5725021182        0.0079324714
Ti         9.4261855947        3.6456096099        7.1676606913
Ti         7.5399327100       13.3061802813        2.4086145918
Ti         7.4652143070        3.7997906607       -0.0657320851
Ti         9.5093132734       13.2430592446        4.7802079590
Ti         7.5988729908        7.5359790732       -0.0573896748
Ti         9.5263709388        9.3933141430        4.7598611826
Ti         7.6400819689        9.4197444873        2.3239416109
Ti         9.5137991977        7.3591957815        7.1442480742
O         0.0535187604        0.0804546271        2.0886749455
O         1.6748389765        1.9372965093        6.7354114764
O        -0.0712996340        1.9994765467        4.4099960189
O         1.7992536943        0.1461405366        9.2351072125
O         1.8109190757       -0.0185605564        5.2643342106
O        -0.1474117178        2.0064675142        0.4936941860
O         1.8659116986        2.1715074017        2.8358614025
O        -0.0728531314       -0.0493878801        7.6247072500
O        -0.0304355777        3.9102889243        2.0825991813
O         1.9927819803       13.2730287943        6.8201858456
O        11.2887799227        1.8287124944        4.3121616658
O         5.6339323103       -0.0195244215        9.2618505257
O         2.1074738613        3.7573187951        5.1816616703
O         0.0498241299       13.3763156180        0.4418387082
O         5.6323246011        1.8578341792        2.8395694354
O        11.2823862112        0.0656162762        7.5675220361
O         3.7106747169        0.1131996971        7.6943174497
O        13.1893101708        1.8750929761        2.8351309497
O        13.1741898696       -0.1010639900        9.2142565573
O         3.7099346830        1.6559124700        4.3732186144
O         1.9080867699        5.6220747021        6.7393758900
O         0.0554942523       11.4501800937        1.9112273707
O         0.0834281710        5.7143370870        0.4715893912
O         1.9121675162       11.3158281307        5.2396629332
O         0.1232366267        7.7276594268        1.9450891709
O         2.1510832102        9.4628610514        6.7770648525
O         7.4563715788        1.8665736523        4.3599418508
O         9.4168400372        0.0337251255        9.1975800461
O         1.8270132095        7.5681882272        5.2770854991
O         0.1092809807        9.5678420382        0.2706696627
O         9.3706523881        2.0381174129        2.8418806990
O         7.4812808778       -0.1589996746        7.7029577010
O         3.7481086807        0.0591546834        2.0358779575
O        13.2204402113        1.8485158444        6.7803573001
O         0.0030170261        5.6044354690        4.4857764529
O         1.9277578968       11.3561731630        9.2609355902
O        13.1751067289       -0.0288737539        5.1344035097
O         3.7067022621        1.9530743090        0.4355938086
O         1.9471624633        5.7974423186        2.9147623036
O         0.1014485382       11.4243000282        7.5724410130
O        11.3460832577        2.0066325638        0.2880734659
O         5.8146133092       -0.0891199061        5.2776365746
O         5.5703712790        1.8284738972        6.7813413801
O        11.2711803771        0.1397224134        1.8934142717
O         1.9084283115        3.8329008474        9.2009474400
O        -0.0222391774       13.1583547457        4.4536475964
O         0.0225816667        3.7970810497        7.6800226579
O         1.8872956573       13.2372243838        2.8689721287
O         3.9595195876        3.8406696202        2.0678397996
O        13.1095801721       13.2701022952        6.7305592891
O        11.3695420209        5.6615971094        4.3826321969
O         5.6884355147       11.4666224584        9.2244748626
O        13.1786312706        3.8046285773        5.2242985588
O         3.6426391790       13.3087197390        0.5111660821
O         5.7426486143        5.9060020631        2.7428966601
O        11.3029068936       11.3371737658        7.6552560362
O        11.2528011002       13.2683215447        0.4125659219
O         5.5030893810        3.7173390801        5.1867050231
O         3.7895611904       11.3701656945        7.6844316468
O        13.2798246859        5.9215828072        2.8732409332
O         5.5225866571       13.2008994929        6.7785466113
O        11.5354916069        3.8319155535        1.9181393993
O        13.2406085993       11.4092804682        9.2070390066
O         3.8628860850        5.7136619305        4.4024398108
O         5.7625587371        5.6327471320        6.7321487634
O        11.1273122958       11.4628474033        1.9965598355
O        13.2108432202        3.9049931709        9.1354528229
O         3.7956527881       13.2143771772        4.3871817224
O        11.3558228158        5.7366727723        0.4142298657
O         5.7916416628       11.3037854702        5.2395058283
O         3.7422311644        3.7243845138        7.6525208198
O        13.2134471021       13.2176369613        2.7194445303
O        13.0577571256       11.4111600665        5.1568492445
O         3.7138375562        5.6741583688        0.4307787489
O         5.6961110602       13.1708673425        2.8697369577
O        11.2939395143        3.5639578617        7.5597064145
O         3.9596602580       11.4085377608        1.9626608215
O        13.2157388989        5.6407744196        6.8925843376
O        11.2852519412       13.3435147803        4.3203152338
O         5.6655095328        3.8105190903        9.1397610454
O         3.7839104650        7.6404960246        1.9248055047
O        13.3090449016        9.5862478189        6.7502049325
O         7.5706194792        5.5298573159        4.3192869225
O         9.4253603231       11.3218174343        9.2242726959
O        13.2679523928        7.5879633602        5.4232606625
O         3.8083845544        9.5216758565        0.3629862697
O         9.5581854880        5.5821367382        2.7933161746
O         7.5193164013       11.3415923942        7.5745363344
O        11.3424075911        9.4917760294        0.4123413595
O         5.7336599855        7.5690298691        5.1642219247
O         5.5568977775        9.4180875961        6.7581271443
O        11.2292374481        7.6062045873        2.0180843042
O         9.4377181900        3.9450287729        9.1459614772
O         7.5894922994       13.0496806361        4.4510799955
O         7.5011388809        3.6494659447        7.5502258240
O         9.4303474991       13.4600931518        2.8564896037
O         7.4449952533       -0.0408063181        2.0330435522
O         9.2197207275        1.8090516582        6.7226728487
O         0.0784116928        9.3732013302        4.4394047422
O         1.9255663110        7.5828819330        9.2000625940
O         9.3159582954       -0.0319501541        5.1987415138
O         7.6282354936        1.9057263018        0.4431233254
O         1.9650141128        9.6917883950        2.7733890424
O         0.0418890925        7.5693563176        7.6194673017
O         7.5201349690        3.7951856892        1.9455964705
O         9.5048382134       13.2117387997        6.7384231100
O        11.4393755370        9.2315737157        4.3753280061
O         5.6679271147        7.6916060852        9.1216968588
O         9.4786108160        3.6876058493        5.1870605851
O         7.5673349257       13.2200347279        0.4231464235
O         5.7424085010        9.3983143464        2.7170574918
O        11.3009421190        7.6418744956        7.6000555870
O         3.7897849001        7.3691931645        7.6062766266
O        13.3242688984        9.6124194298        2.8104093968
O        13.2664826992        7.6760666311        9.3195488844
O         3.8506085117        9.4230103567        4.2932374368
O         9.6049334316        5.5300695214        6.7514764600
O         7.6415643862       11.3271181870        1.9538928638
O         7.3487525756        5.6970410209        0.3745283594
O         9.5581991173       11.2269803111        5.2017087491
O         7.8499688732        7.5918795626        1.9216535755
O         9.4520884832        9.4207200836        6.8068167580
O         7.5562030896        9.3765816356        4.3232800924
O         9.4717784809        7.4433846428        9.2153445505
O         9.3616976986        7.4815078690        5.2479696024
O         7.5184987774        9.4695341669        0.3664996103
O         9.5716445317        9.5064312962        2.8731506746
O         7.5955958293        7.5412019911        7.5904622632
     192
 i =        2, E =     -5776.7342689470
Ti        -0.0591467095        0.1165610823        0.0316055349
Ti         1.8567727805        1.9278292030        4.8801582253
Ti         0.0374893259        2.0095911597        2.4899512058
Ti         1.8445487007       -0.0641337416        7.1930668338
Ti        -0.0545145956        3.8284502989       -0.0315889933
Ti         1.9498223339       13.2065279403        4.8407639197
Ti        11.3013943708        1.9579284340        2.4311777801
Ti         5.6012740636       -0.0752171068        7.2143257146
Ti         1.9049297300        3.8050404113        7.2471319127
Ti         0.0084703330       13.3330570019        2.4595678628
Ti         5.6839626884        1.8514529229        4.8113777734
Ti        11.2898315922        0.0924532052       -0.0318296912
Ti         3.6609531676        0.0810092074        0.0345944487
Ti        13.1627552636        1.7940826214        4.7377937548
Ti        13.2635728383       -0.0402427987        7.1780134114
Ti         3.7649851177        1.8363348220        2.5038554144
Ti         1.9625949645        5.6564222875        4.8333524123
Ti         0.0034250175       11.5731331599       -0.0111841298
Ti        -0.0135346372        5.7079614635        2.4791159623
Ti         1.8836772137       11.3455811889        7.3279770570
Ti         0.0320367836        7.4811997325        0.0254853387
Ti         2.0241948538        9.5184300216        4.8642134070
Ti         7.5002676177        1.9545945809        2.3348341850
Ti         9.4809156102       -0.1084079847        7.2252255749
Ti         1.9376904371        7.5723719491        7.1765967707
Ti         0.1032404786        9.5521570536        2.4983183564
Ti         9.3520928263        1.8226220166        4.7916241159
Ti         7.4670560625       -0.0346828038       -0.0613964147
Ti         3.7400661569        3.7719157091        0.0049319394
Ti        13.2296946669       13.1198021169        4.7805302033
Ti        11.3593383187        5.7153522963        2.3857270009
Ti         5.6736773108       11.3201098665        7.1763126572
Ti        13.1643122651        3.7047852054        7.2300386767
Ti         3.7819402899       13.1951052246        2.4449669768
Ti         5.6993141699        5.6977298335        4.8322136829
Ti        11.2242716067       11.3865036697        0.0802564159
Ti        11.3053265291       13.3143422073        2.3465122753
Ti         5.6641177982        3.7242302442        7.1432254533
Ti         3.8640205036       11.3968638137        0.0198499618
Ti        13.2737222793        5.5943204273        4.8698712147
Ti         5.7709965986       13.2025794347        4.8064546106
Ti        11.2650080791        3.7989312939       -0.0435534446
Ti        13.1238680470       11.3545398965        7.2600907453
Ti         3.8054273587        5.6346699806        2.3956937501
Ti         3.7883821636        7.5812456872        0.0296590550
Ti        13.2800361088        9.4293357496        4.8434197079
Ti         7.4962969323        5.6827626810        2.4115814742
Ti         9.4125053633       11.1802341634        7.1699923814
Ti        13.2955764600        7.5274690409        7.1967824561
Ti         3.8606062981        9.4364755073        2.3525439741
Ti         9.5197032473        5.5719148924        4.7288139127
Ti         7.5641880891       11.3543575746        0.0391285197
Ti        11.3922382243        9.4545552287        2.4337812979
Ti         5.6648421613        7.5813484739        7.2235008287
Ti         5.7694041333        9.4187212064        4.7601748227
Ti        11.3306057279        7.5855945777        0.0001042054
Ti         9.4359247766        3.6647665811        7.1746656166
Ti         7.5408927465       13.3217578201        2.3896549870
Ti         7.4746958026        3.7990923026       -0.0571727698
Ti         9.4962694054       13.2371720661        4.7898592118
Ti         7.6099716086        7.5361056867       -0.0620934137
Ti         9.5244659385        9.4214104134        4.7799026384
Ti         7.6134499531        9.4159920441        2.3313001633
Ti         9.5171985435        7.3908127823        7.1545730372
O         0.0550279035        0.0641302905        2.0222364317
O         1.7660945678        1.9176198283        6.7618535668
O        -0.0226985928        1.9740040571        4.3894205250
O         1.7968232787        0.1203210220        9.2062714575
O         1.8184994787       -0.0100710129        5.2719665910
O        -0.1093704825        2.0071674481        0.4561316714
O         1.8650095595        2.0765182285        2.8173488906
O        -0.0535022524       -0.0518577205        7.6444854575
O        -0.0604480651        3.8895542255        2.0681855970
O         1.9832680586       13.2469184556        6.8306525899
O        11.2955215903        1.8437529512        4.3355159484
O         5.6051185779        0.0198636873        9.2431563474
O         2.0518590490        3.7796713936        5.2001158308
O         0.0452436603       13.3760089712        0.4408270612
O         5.6336683732        1.9275289352        2.8257511011
O        11.3081576119        0.0730041045        7.5780349753
O         3.7021003571        0.0752505478        7.6717906161
O        13.1884295820        1.8996300957        2.8450557104
O        13.1851429605       -0.0147151478        9.1847147651
O         3.7229393161        1.6939983259        4.3904207705
O         1.8720347123        5.6361965618        6.7670925172
O         0.0261928952       11.4235190045        1.9048815314
O         0.0350005004        5.7068057842        0.4621405859
O         1.8915371229       11.3341794536        5.2480013206
O         0.1256722598        7.7001223018        1.9298846172
O         2.0514981301        9.4671160255        6.7895734620
O         7.4990140786        1.9134860875        4.3767704360
O         9.4173514201        0.0092840368        9.1672621542
O         1.8997061512        7.5649398195        5.2738667258
O         0.0811221377        9.5427064636        0.2662282109
O         9.3817777291        1.9736279659        2.8250137328
O         7.4774245604       -0.1282365255        7.6777867690
O         3.7353728589        0.0677930670        2.0281961293
O        13.2722377293        1.8658478089        6.7848911317
O         0.0102670193        5.5946012915        4.4593901046
O         1.8906136837       11.3569168746        9.2388855557
O        13.2277000455       -0.0028622829        5.1755516158
O         3.7138851829        1.9342910749        0.4478850150
O         1.9428862890        5.7422601397        2.8736622810
O         0.0534186804       11.4343062340        7.6067259592
O        11.3207964518        1.9835589279        0.3172954433
O         5.7821183222       -0.0583876031        5.2573922395
O         5.6324285819        1.8239154151        6.7735956712
O        11.3004222836        0.1286662292        1.9154091279
O         1.8869293997        3.8177573958        9.2315170972
O        -0.0129900535       13.2099588437        4.4063919555
O         0.0031102089        3.7742358646        7.6819788185
O         1.8796056020       13.2366271862        2.8677728754
O         3.8973756634        3.8518673744        2.0531630185
O        13.1574993469       13.2364667052        6.7810017989
O        11.3677083714        5.6623333214        4.3991266599
O         5.6949480350       11.4488656124        9.2232621387
O        13.1569703637        3.8074157141        5.2257929773
O         3.6547820682       13.2956076708        0.4818273115
O         5.7127171062        5.8685487232        2.7674394904
O        11.3212845787       11.3339987958        7.6191946969
O        11.2772355416       13.2724063450        0.3912616131
O         5.5905418668        3.7208592231        5.1931263857
O         3.7931452531       11.3753503417        7.6669114745
O        13.2885451979        5.8962129404        2.8689598471
O         5.5247030878       13.2038673875        6.8039591439
O        11.4658978651        3.8071635039        1.9593103619
O        13.2585034027       11.4322631424        9.1927315011
O         3.8563042951        5.7205540242        4.3983659744
O         5.7472165695        5.6317612816        6.7291540520
O        11.2276246564       11.4120759798        2.0032849503
O        13.2092432271        3.8860088994        9.1438537939
O         3.7803999456       13.2276975619        4.4115801345
O        11.4016768156        5.7436839616        0.4116705845
O         5.7400280690       11.2889735118        5.2533502223
O         3.7561215630        3.7272072038        7.6639052581
O        13.2310248204       13.2726816392        2.7842349803
O        13.0968284687       11.3496506157        5.1648672403
O         3.7417163036        5.6816120205        0.4310747999
O         5.6940986166       13.2326715782        2.8578650804
O        11.3036198112        3.5844589699        7.5834366811
O         3.9211842241       11.4022199717        1.9807536241
O        13.2249313260        5.6544414591        6.8296721370
O        11.3037607137       13.2979218539        4.3366658466
O         5.6590086988        3.7831713946        9.1564058401
O         3.7550030438        7.6143023398        1.9361392608
O        13.3058581705        9.5455212322        6.7800693989
O         7.5863167969        5.5246884716        4.3269391563
O         9.4334894239       11.3079964064        9.1697971875
O        13.3040293084        7.5766366334        5.3453492110
O         3.7976582198        9.5108384453        0.3871204552
O         9.5068068457        5.5814576615        2.8029010362
O         7.5201427810       11.3198989341        7.5682008684
O        11.3600668644        9.4846883582        0.4742325146
O         5.7445045047        7.5493374410        5.1842583759
O         5.6139148531        9.4036322238        6.7673862939
O        11.3040828422        7.6171871021        1.9966413681
O         9.4182325569        3.9217208418        9.1453056317
O         7.5727758808       13.0931273942        4.4023931845
O         7.5199693191        3.6971367979        7.5791899409
O         9.4262160510       13.3622647911        2.8266558497
O         7.4836890460       -0.0006077386        2.0278504029
O         9.2867139673        1.8250003013        6.7554885679
O         0.0513434205        9.4439530383        4.4204415326
O         1.9034310674        7.6629243274        9.2103379054
O         9.3642235783       -0.0219155369        5.2060673616
O         7.5504844374        1.9143660471        0.4153952740
O         1.9343472667        9.6262071343        2.7724687051
O         0.0311725249        7.5819903592        7.6195036564
O         7.4819710109        3.8175868358        1.9438003471
O         9.4843978887       13.2201498790        6.7584558825
O        11.4109347210        9.2548405662        4.3967317449
O         5.6703792804        7.6377087925        9.1512044062
O         9.4550188494        3.7124315033        5.1995026516
O         7.5830472638       13.2523076070        0.4327208612
O         5.7301527186        9.4151762211        2.7588229000
O        11.3366514946        7.6184086688        7.6420332239
O         3.7821534119        7.4065116047        7.5990155212
O        13.2908980514        9.5985813957        2.8172894579
O        13.2670120417        7.6527227639        9.2157208676
O         3.8434592271        9.3947698404        4.3165007455
O         9.5378867828        5.5649598499        6.7616544198
O         7.6610235926       11.3281101697        1.9480148284
O         7.4257865393        5.6913292988        0.4097003857
O         9.5528079142       11.2529870962        5.2109951137
O         7.7853433382        7.5605656911        1.9393428369
O         9.4686016092        9.4131370777        6.8326075733
O         7.5790381863        9.3885240072        4.3395752756
O         9.4702714938        7.5029863058        9.1790274311
O         9.4102946988        7.4927476102        5.2368802552
O         7.5328684107        9.4557590857        0.3722631190
O         9.5272918852        9.5021077164        2.8685574041
O         7.5898499372        7.5145112839        7.6002880989
     192
 i =        3, E =     -5776.7729828704
Ti        -0.0473242604        0.1183382530        0.0169551857
Ti         1.8641077762        1.9195048653        4.8655647264
Ti         0.0343797314        2.0039747825        2.4718167245
Ti         1.8491918859       -0.0533028196        7.2016885626
Ti        -0.0636625615        3.8144858400       -0.0301295460
Ti         1.9471478996       13.2232183763        4.8284155484
Ti        11.3250636112        1.9437299405        2.4328083348
Ti         5.6047453097       -0.0499227089        7.2102085846
Ti         1.9009350141        3.7938581203        7.2460420328
Ti         0.0053967870       13.3339797453        2.4484603119
Ti         5.6887884868        1.8604080197        4.8110464553
Ti        11.2853159219        0.0813092928       -0.0264269691
Ti         3.6715411596        0.0804123059        0.0270413347
Ti        13.1809429292        1.8140159996        4.7700376558
Ti        13.2479567766       -0.0272439893        7.1992325453
Ti         3.7730408116        1.8443778945        2.4827569449
Ti         1.9580963846        5.6661150647        4.8263872526
Ti        -0.0076126914       11.5634548924       -0.0235266387
Ti        -0.0072150502        5.6982056625        2.4720148114
Ti         1.8686794447       11.3538337519        7.2920382399
Ti         0.0150380993        7.4880844466        0.0039138856
Ti         2.0038754686        9.5184458026        4.8477014511
Ti         7.5152999830        1.9472123695        2.3339649371
Ti         9.4687997461       -0.0899046384        7.2161828954
Ti         1.9256346685        7.5683024703        7.1773928724
Ti         0.0829964668        9.5334093368        2.4976022459
Ti         9.3671194000        1.8381396239        4.7874200243
Ti         7.4670855344       -0.0115778187       -0.0555493496
Ti         3.7454047773        3.7788876730        0.0139047028
Ti        13.2323282050       13.1441956455        4.7843277169
Ti        11.3623575186        5.7085983740        2.3933072021
Ti         5.6699865535       11.3187459586        7.1918319177
Ti        13.1768831953        3.7217888161        7.2186315556
Ti         3.7808382206       13.2199027099        2.4229515967
Ti         5.7004520865        5.6794929024        4.8406957932
Ti        11.2427851815       11.3889626056        0.0516033896
Ti        11.3234633463       13.2951637236        2.3701409607
Ti         5.6654981873        3.7314083131        7.1615721056
Ti         3.8426447581       11.3899143113        0.0189778846
Ti        13.2703811148        5.5977575581        4.8475522753
Ti         5.7444618851       13.2027857504        4.8001177035
Ti        11.2703826636        3.7963712918       -0.0201100132
Ti        13.1650203682       11.3312817727        7.2706669564
Ti         3.7962799318        5.6349948338        2.3934614736
Ti         3.7749485307        7.5946511487        0.0156511914
Ti        13.2782537780        9.4401129571        4.8406587306
Ti         7.5017542971        5.6902173673        2.4043695340
Ti         9.4198759978       11.2094106180        7.1649870900
Ti        13.2942644488        7.5223057013        7.1840171619
Ti         3.8395846604        9.4343523852        2.3779141874
Ti         9.5009667659        5.5846280145        4.7461521114
Ti         7.5709317925       11.3476411357        0.0234400840
Ti        11.3999474695        9.4565065376        2.4258858576
Ti         5.6719794842        7.5591246292        7.2363189437
Ti         5.7581887744        9.4132143316        4.7777978601
Ti        11.3516623605        7.5906266273       -0.0128976741
Ti         9.4326292994        3.6887809955        7.1846931003
Ti         7.5484653449       13.3281563779        2.3823559699
Ti         7.4817795225        3.8043044205       -0.0451117670
Ti         9.4880752608       13.2300031540        4.7883747221
Ti         7.6111367984        7.5388190679       -0.0584501302
Ti         9.5156537605        9.4285817881        4.7757541440
Ti         7.6070354453        9.4343992510        2.3537275622
Ti         9.5101748913        7.4325048202        7.1665475233
O         0.0428852247        0.0748595889        1.9920671704
O         1.8118690300        1.9136870783        6.7721875230
O         0.0048736766        1.9399419632        4.3912950960
O         1.8160777328        0.1204252647        9.2025520675
O         1.8104089672       -0.0129297262        5.2681201825
O        -0.0959681437        1.9925707569        0.4476957071
O         1.8688173876        2.0246615315        2.8042581721
O        -0.0400355169       -0.0604852276        7.6404235100
O        -0.0862856662        3.8750419195        2.0450258762
O         1.9540627479       13.2329358009        6.8272555800
O        11.2931701324        1.8535749818        4.3680411400
O         5.5917319035        0.0153629590        9.2247129776
O         2.0113847311        3.7856065682        5.2164964473
O         0.0328958917       13.3612717591        0.4334651910
O         5.6456965186        1.9613817278        2.8210673997
O        11.3047913921        0.0554484041        7.5871288484
O         3.7116709117        0.0309979184        7.6669526005
O        13.2026362338        1.8949029174        2.8574668591
O        13.1931792138        0.0527862270        9.1736148074
O         3.7489482245        1.7311691890        4.3983157672
O         1.8608065445        5.6494809046        6.7929359948
O        -0.0102701937       11.4066781947        1.9085672044