     192
 i =        1, E =     -5776.6392036919
Ti        -0.0041885543        0.0140867740       -0.0061082281
Ti        -0.0077895848       -0.0033420912       -0.0164336337
Ti        -0.0067797154        0.0019053125       -0.0146743866
Ti        -0.0068687354        0.0093071940        0.0131952684
Ti        -0.0049617351       -0.0069820346        0.0142079514
Ti         0.0024820919        0.0036541118        0.0036903448
Ti         0.0044667954        0.0035973871       -0.0262979857
Ti         0.0002610397        0.0073773929        0.0052978112
Ti        -0.0005150898       -0.0136723522       -0.0055512354
Ti        -0.0125130561       -0.0026619943        0.0001265695
Ti        -0.0142194475        0.0034571679        0.0002251202
Ti        -0.0042649028       -0.0075515189       -0.0013954771
Ti        -0.0001022145       -0.0054574418       -0.0057510344
Ti         0.0146939748        0.0055995128        0.0231678304
Ti        -0.0146322573        0.0082221819        0.0088517338
Ti         0.0030453360        0.0218133474       -0.0130902524
Ti        -0.0018284630        0.0063456707       -0.0192710203
Ti        -0.0019106957        0.0017078492       -0.0110213069
Ti         0.0073505344        0.0026972862        0.0054756111
Ti         0.0090331220        0.0066945623       -0.0172819888
Ti        -0.0086729616        0.0071613224       -0.0106463935
Ti        -0.0038222021       -0.0114544019       -0.0309532190
Ti        -0.0021519457       -0.0113524204       -0.0078241984
Ti        -0.0038590864        0.0085980849       -0.0000694014
Ti        -0.0015392203       -0.0051711100        0.0104453721
Ti        -0.0001739790       -0.0066174427        0.0138706724
Ti        -0.0000825678        0.0018955424        0.0093627394
Ti         0.0144146886        0.0075423834        0.0285597483
Ti         0.0150895149        0.0007035192        0.0058399120
Ti        -0.0109604385        0.0203618633       -0.0080054199
Ti         0.0059241993       -0.0074287964        0.0020580749
Ti        -0.0011420327       -0.0035572640        0.0120802154
Ti         0.0047050533        0.0027773038       -0.0128163638
Ti         0.0056395325        0.0179259388        0.0005822959
Ti         0.0158781349       -0.0097289464       -0.0093063013
Ti         0.0009326545        0.0032600809       -0.0116770489
Ti         0.0009359262        0.0010502379       -0.0019498921
Ti        -0.0028680548        0.0005713466        0.0004086098
Ti        -0.0060609578       -0.0027811454       -0.0159779596
Ti        -0.0110666750        0.0095688523        0.0017022536
Ti        -0.0094890403       -0.0069179992       -0.0053452217
Ti         0.0039330248        0.0130156739        0.0108069916
Ti         0.0083045153        0.0020382722        0.0003965226
Ti         0.0046553218        0.0072271348        0.0064029802
Ti         0.0014297777        0.0102548873       -0.0184810763
Ti        -0.0002689906        0.0073738440       -0.0016443967
Ti         0.0022891406        0.0060972481       -0.0027345192
Ti        -0.0069406068        0.0276404596        0.0042673517
Ti        -0.0072531287        0.0002972156        0.0199794143
Ti        -0.0117047294        0.0051116257        0.0004870071
Ti        -0.0033866684        0.0015132969        0.0109980229
Ti         0.0091441786       -0.0000850095       -0.0146095686
Ti         0.0098206105        0.0053999996       -0.0064180494
Ti         0.0064693540       -0.0081942517        0.0061410951
Ti        -0.0118819109        0.0044283773        0.0017773144
Ti         0.0023025833        0.0090865741       -0.0070913318
Ti        -0.0045392465       -0.0017294089       -0.0025515542
Ti         0.0102984826       -0.0076733844       -0.0035987917
Ti         0.0099117917       -0.0026403108        0.0043242840
Ti        -0.0068729489       -0.0082999691        0.0101785457
Ti         0.0013196828        0.0031396771       -0.0040399850
Ti         0.0002745797        0.0008558435        0.0072345112
Ti        -0.0015968006        0.0045860646        0.0041592365
Ti        -0.0108467946        0.0071127619        0.0061090532
O         0.0014795068        0.0020793787       -0.0083702947
O         0.0097036758       -0.0024088779        0.0155544558
O         0.0165606518       -0.0038791848        0.0035837640
O         0.0034436757       -0.0034515972       -0.0053946000
O         0.0008635005        0.0005909620       -0.0060195981
O         0.0060858387       -0.0019514085       -0.0043111968
O         0.0037443772       -0.0127163302        0.0000023653
O         0.0172421421       -0.0007868857        0.0051745334
O        -0.0027818854       -0.0041404792       -0.0059671813
O        -0.0007410913       -0.0177655140        0.0018296562
O        -0.0132866920       -0.0006461220        0.0160608486
O        -0.0193055271        0.0046186478       -0.0037214860
O        -0.0062311978        0.0111106397        0.0069159594
O         0.0015808720       -0.0060742141        0.0022445881
O         0.0013000872        0.0060055231       -0.0022461857
O         0.0084017827        0.0007719260        0.0031814878
O         0.0011347356       -0.0040921788       -0.0048692143
O        -0.0013351846        0.0028885630       -0.0068565544
O         0.0079719277        0.0099294244       -0.0079457612
O         0.0062923438        0.0018985441        0.0162684501
O        -0.0041112265        0.0097890414        0.0173071645
O        -0.0007559165       -0.0085351041        0.0032693127
O        -0.0063974795       -0.0086107353       -0.0010677110
O        -0.0011335544        0.0153089591        0.0042203584
O        -0.0006101266       -0.0058440820        0.0001814935
O        -0.0084020048       -0.0014779150        0.0178260468
O         0.0181017556        0.0036477758        0.0041261068
O         0.0024103411       -0.0022162806       -0.0057969333
O         0.0086202570       -0.0006515227       -0.0054083430
O        -0.0031038265       -0.0046661882       -0.0020660476
O         0.0036385000       -0.0066129339       -0.0086811090
O        -0.0027832105        0.0029799690       -0.0220448933
O        -0.0003004245       -0.0122686735       -0.0015127415
O         0.0050912702        0.0035126534       -0.0046043703
O         0.0115557420       -0.0007056441       -0.0092218586
O        -0.0133762411        0.0007301225        0.0031392472
O         0.0050840355        0.0101903352        0.0060973483
O         0.0005603196       -0.0049532488        0.0071334497
O        -0.0078398128       -0.0062129302       -0.0074970251
O        -0.0241650167        0.0029187832        0.0116612953
O        -0.0030660524       -0.0150697286        0.0079018289
O        -0.0040546112        0.0148508530       -0.0042981740
O         0.0058673287       -0.0027005392        0.0000529985
O         0.0035108292       -0.0011136451        0.0049047863
O        -0.0138769242       -0.0007330944        0.0056641754
O         0.0080926289        0.0052196950       -0.0117172962
O        -0.0075262173       -0.0010131373       -0.0063838835
O         0.0032698857       -0.0012584385        0.0014740903
O        -0.0071115759       -0.0081212567       -0.0071756507
O         0.0047716554       -0.0180368241        0.0038330569
O         0.0052802767       -0.0008575146        0.0027351492
O         0.0016521817       -0.0009798433       -0.0045864325
O        -0.0034541312       -0.0132339336        0.0008881892
O         0.0012018398        0.0011410327       -0.0093040759
O        -0.0158302043       -0.0044413362        0.0040825721
O         0.0018314285       -0.0002568848       -0.0003709981
O         0.0029927547        0.0124849171       -0.0053200803
O         0.0087317211       -0.0031064583        0.0029871459
O         0.0120053429        0.0000337788       -0.0001757594
O         0.0034302082       -0.0045942726        0.0017077504
O        -0.0020856206       -0.0003304112        0.0061045241
O        -0.0089458108       -0.0068428758        0.0060622569
O         0.0072113926        0.0009164571       -0.0013722234
O        -0.0092494902       -0.0000616293       -0.0010202088
O        -0.0031947380        0.0059645334        0.0035509065
O         0.0123522501       -0.0199509366        0.0076705448
O         0.0008567409       -0.0006884877        0.0046025005
O        -0.0060870596        0.0010552010        0.0097337321
O         0.0051151589       -0.0040616670       -0.0012735310
O        -0.0085519220       -0.0048723500       -0.0026842825
O         0.0085745371        0.0000128507       -0.0009007082
O         0.0054512014        0.0064119772        0.0138298592
O         0.0020304220       -0.0329623537        0.0039364037
O         0.0030177331        0.0000284925        0.0022734870
O        -0.0029451514        0.0072128322       -0.0016195147
O         0.0064752952        0.0027565004        0.0031459744
O        -0.0024697628       -0.0133775376        0.0097398689
O         0.0007010679        0.0042849112       -0.0062850477
O         0.0215778868       -0.0044182932        0.0048307428
O        -0.0126722216       -0.0020496726        0.0026701200
O        -0.0021721774       -0.0113924567        0.0080259464
O        -0.0007906107       -0.0079015722        0.0093761719
O         0.0032200824       -0.0003412876        0.0030105996
O        -0.0066978635       -0.0015541525       -0.0101502774
O         0.0020275011       -0.0045249144       -0.0328823819
O         0.0006334776       -0.0032316101        0.0042823437
O        -0.0195429722       -0.0007036039       -0.0008073933
O         0.0072824892       -0.0017673331        0.0036222493
O         0.0040739291       -0.0028773057        0.0123918725
O        -0.0013604869       -0.0012742124        0.0061207814
O         0.0042144131        0.0009667836       -0.0033669868
O         0.0083459522        0.0020202970       -0.0075305674
O        -0.0120296339       -0.0028050335       -0.0033819212
O         0.0032457448        0.0047477008       -0.0091134477
O         0.0074479550        0.0041206008        0.0068365400
O        -0.0099986715       -0.0093925557       -0.0091651119
O         0.0038459595        0.0190244819       -0.0046504905
O         0.0080701414        0.0032402101        0.0076331026
O        -0.0007768153        0.0093380219       -0.0118454748
O        -0.0003466756        0.0088338869        0.0000522050
O         0.0055919213        0.0001623219       -0.0009336713
O        -0.0089041722       -0.0037154290       -0.0067113644
O        -0.0033933005       -0.0070952017        0.0033726639
O         0.0008795813        0.0008871016        0.0038206662
O        -0.0028562685        0.0097584150       -0.0019968270
O        -0.0030117895       -0.0062408970        0.0046863000
O        -0.0068089857        0.0033728720        0.0041826737
O        -0.0035966026       -0.0063901540        0.0075888113
O        -0.0022547505        0.0056380807        0.0014537245
O         0.0012697176        0.0127807242        0.0031784323
O         0.0037467006        0.0039376205        0.0057144082
O         0.0235608631       -0.0028071108        0.0112975628
O        -0.0022811383        0.0054005370       -0.0018856049
O        -0.0120230699       -0.0017491841        0.0005947830
O         0.0065283985       -0.0047679922       -0.0126376540
O        -0.0026281908       -0.0016654549        0.0081135437
O        -0.0069341366        0.0091707255        0.0001253002
O         0.0022053971        0.0003796410        0.0055624598
O         0.0078564876       -0.0020419058        0.0026546535
O        -0.0029609122        0.0071592270        0.0014944252
O        -0.0054905814       -0.0108920042        0.0032279739
O         0.0011879134       -0.0243847056       -0.0021470828
O         0.0232686142        0.0023227112        0.0012745170
O        -0.0079020971        0.0054447690       -0.0075296651
O         0.0041819349       -0.0034441160       -0.0058472127
O         0.0022986161       -0.0111725096        0.0025093554
O        -0.0215787755        0.0011777015       -0.0060594394
O        -0.0019214886       -0.0048001149        0.0044341032
     192
 i =        2, E =     -5776.7342689470
Ti        -0.0022521758        0.0044606184        0.0026420071
Ti         0.0013701964       -0.0042828790       -0.0050270139
Ti        -0.0034648979       -0.0022009666       -0.0114986008
Ti         0.0012988729        0.0173344803        0.0045847614
Ti         0.0025640091       -0.0045431267        0.0023922177
Ti        -0.0041480463        0.0062936508       -0.0049281216
Ti        -0.0004055739        0.0043306606       -0.0061498586
Ti         0.0000110271        0.0077270198        0.0063915169
Ti        -0.0055546827       -0.0087964860       -0.0028745414
Ti        -0.0009817498       -0.0017888070       -0.0032455583
Ti        -0.0081873336        0.0000333749        0.0025638660
Ti         0.0025852860        0.0011393637       -0.0043024146
Ti         0.0048611520       -0.0041879579       -0.0039657459
Ti         0.0033215443        0.0071870381        0.0153523372
Ti        -0.0104410232        0.0084530315        0.0028161860
Ti        -0.0029538889        0.0144385921       -0.0100276901
Ti         0.0000827685        0.0034774025       -0.0103526108
Ti        -0.0021265123        0.0053667192       -0.0054488056
Ti         0.0092185472        0.0052432312        0.0035271830
Ti         0.0011117428       -0.0031378256       -0.0118660445
Ti        -0.0026025323        0.0080737043       -0.0110417217
Ti        -0.0051885467       -0.0097309802       -0.0107759023
Ti         0.0041659700       -0.0014980997        0.0040625971
Ti        -0.0080231516        0.0088611873       -0.0009478035
Ti        -0.0059881297       -0.0022627385        0.0068281570
Ti        -0.0075409584       -0.0020171559        0.0035420502
Ti         0.0017349226        0.0059581966       -0.0028250308
Ti         0.0003770808        0.0095966454        0.0070121111
Ti         0.0061815905        0.0056656013        0.0062698568
Ti        -0.0011842411        0.0171809181       -0.0049907164
Ti         0.0017277130       -0.0002882732        0.0028727614
Ti        -0.0062946776       -0.0021074261        0.0054569162
Ti         0.0124276532       -0.0003434217       -0.0091123528
Ti        -0.0052233526        0.0111133671       -0.0053543954
Ti         0.0071952998       -0.0041065748       -0.0034314712
Ti         0.0155412188       -0.0065633168       -0.0101580419
Ti         0.0017740440       -0.0000543368        0.0074786662
Ti        -0.0020648636        0.0007508937        0.0033392777
Ti        -0.0075464332        0.0058271783       -0.0063002433
Ti        -0.0032686665        0.0095323885       -0.0022734102
Ti        -0.0100595519        0.0006116759        0.0027152444
Ti         0.0049534262        0.0072513505        0.0054250617
Ti         0.0110182791       -0.0008395323        0.0040999329
Ti        -0.0036334739        0.0045597727        0.0024744126
Ti        -0.0022492208       -0.0041625528       -0.0111351523
Ti         0.0002897879        0.0004125901       -0.0031066939
Ti         0.0120998246        0.0028036608       -0.0078933518
Ti         0.0015573642        0.0131341333       -0.0005470083
Ti        -0.0020513697        0.0062948524        0.0166748217
Ti        -0.0078954833        0.0043703139        0.0029217177
Ti        -0.0081437370        0.0044173342        0.0064213413
Ti        -0.0030880933       -0.0053666779       -0.0011076592
Ti         0.0081751604        0.0025381173       -0.0051738527
Ti         0.0056656010       -0.0087870903       -0.0021993378
Ti        -0.0037270321       -0.0031725365        0.0039250747
Ti         0.0067402869        0.0080019961       -0.0047813172
Ti        -0.0076744186        0.0012541606       -0.0022909802
Ti         0.0088503319       -0.0107678641        0.0002332650
Ti         0.0038927348        0.0056556553        0.0044523896
Ti        -0.0038124981       -0.0038418990        0.0044715936
Ti        -0.0024009011       -0.0021526058        0.0014831917
Ti        -0.0039772136       -0.0100020200        0.0003653067
Ti         0.0046653568        0.0028513954        0.0056601010
Ti        -0.0090275155        0.0071087351        0.0012362206
O        -0.0015269752        0.0115810205       -0.0010480215
O         0.0016217580        0.0009523210        0.0057260611
O         0.0024880431       -0.0039841250        0.0065686502
O         0.0077165368        0.0016420186        0.0011382980
O        -0.0015878559       -0.0036890470       -0.0053147957
O         0.0005404855       -0.0065370264        0.0041381457
O         0.0025001928       -0.0025546555       -0.0005708636
O         0.0073826032       -0.0015508267       -0.0012788321
O        -0.0016651107       -0.0048337834       -0.0038493764
O        -0.0030099755       -0.0130810108       -0.0009181126
O        -0.0065980497       -0.0005264744        0.0104163225
O        -0.0045089076       -0.0029239912       -0.0027212707
O        -0.0025699754        0.0012366479        0.0054847016
O        -0.0011308089       -0.0084632800       -0.0025047051
O         0.0062271182       -0.0000374789       -0.0004627780
O         0.0012642428       -0.0029858983        0.0026993472
O         0.0035462973       -0.0045150443        0.0004932077
O         0.0047349740       -0.0020121384       -0.0048362530
O        -0.0010816676        0.0052153580       -0.0004653028
O         0.0073057392        0.0021343682        0.0086561642
O         0.0005468069        0.0056422639        0.0081164678
O        -0.0023576193       -0.0057134520        0.0062392319
O        -0.0016792880       -0.0049715274        0.0000297806
O         0.0004891959        0.0076847497        0.0018900770
O        -0.0045214417       -0.0020977984        0.0063474221
O        -0.0037925900        0.0023862247        0.0071302819
O         0.0067238941       -0.0030833632       -0.0002158212
O         0.0022298697       -0.0000987040       -0.0000678078
O         0.0004048998        0.0041631032       -0.0083050440
O        -0.0070801169       -0.0008395196       -0.0005957216
O         0.0027917435       -0.0027484672       -0.0076827385
O         0.0011330611        0.0002731662       -0.0071383243
O         0.0015348225       -0.0157235746       -0.0014560472
O        -0.0003282869        0.0036214966       -0.0030469728
O         0.0093138938        0.0003450726       -0.0045658000
O         0.0007957306       -0.0008533957        0.0009931971
O         0.0015126904       -0.0029675850        0.0034466297
O        -0.0006491067        0.0014615513        0.0051738481
O        -0.0091186233       -0.0012672285       -0.0004356528
O        -0.0081334677        0.0000183918        0.0023349814
O        -0.0042496698       -0.0086126503        0.0081631970
O        -0.0031075959       -0.0026778232       -0.0035617009
O         0.0011713150        0.0057127299        0.0004667628
O        -0.0009206966       -0.0146776545        0.0019909141
O        -0.0045288142        0.0026287010       -0.0029888840
O        -0.0008730485       -0.0012738113        0.0017336777
O        -0.0025935075       -0.0005237726       -0.0065671711
O         0.0110181082       -0.0010507624        0.0014756587
O        -0.0039692901       -0.0155375148       -0.0048076893
O         0.0042191515       -0.0047252264       -0.0081359475
O         0.0027975324       -0.0007631451       -0.0048265462
O         0.0029826879       -0.0036538737       -0.0022841964
O         0.0018613786       -0.0162297688       -0.0005856606
O         0.0024634481        0.0001033189       -0.0048454857
O        -0.0107564289       -0.0037373418        0.0042562625
O        -0.0051227624       -0.0002244790        0.0059103369
O         0.0022264936        0.0041965740        0.0044152572
O        -0.0014977060       -0.0001959816        0.0029748954
O         0.0054520233       -0.0049442668        0.0064528122
O        -0.0068795395       -0.0030278983       -0.0004010647
O         0.0029579994       -0.0029449056       -0.0028964950
O        -0.0050318143        0.0072214119       -0.0050815525
O        -0.0111564178       -0.0059142760        0.0038752221
O        -0.0077787463       -0.0040877999        0.0015597188
O        -0.0043658600        0.0034431425        0.0077260307
O         0.0037142678        0.0031502216       -0.0007499545
O        -0.0088396685        0.0023322597        0.0055147370
O         0.0027129014        0.0000770597        0.0000554867
O        -0.0006327172       -0.0098516376        0.0029805877
O        -0.0037055645        0.0060158688       -0.0045947831
O         0.0049510112        0.0010764994       -0.0027787672
O        -0.0081332655        0.0000257581        0.0042458381
O         0.0043690096       -0.0051023851        0.0022996672
O         0.0040041682        0.0035630069       -0.0027381563
O        -0.0062705460        0.0031436526        0.0001393802
O         0.0009590463        0.0037158762        0.0055111536
O        -0.0035275776       -0.0087898450        0.0065308927
O        -0.0003134187       -0.0025517849        0.0024174064
O         0.0092994738       -0.0012322178        0.0013262942
O        -0.0077378951       -0.0015280909       -0.0012035175
O         0.0028960243       -0.0012020025        0.0041027515
O        -0.0014676437       -0.0111655824        0.0033505210
O        -0.0045339578        0.0024806358        0.0068671509
O        -0.0039547956        0.0005814163        0.0002958679
O        -0.0000293501        0.0000347409       -0.0201804721
O         0.0021354738       -0.0010218590        0.0030459375
O         0.0041107910        0.0030148392       -0.0036690840
O         0.0106498308       -0.0000332377        0.0048031936
O        -0.0005487488        0.0050556630       -0.0063907186
O         0.0003111829        0.0012549187        0.0053991897
O         0.0003200976        0.0042642521        0.0006664629
O         0.0002844065       -0.0113775243        0.0027116485
O         0.0014933903       -0.0044847271        0.0023981615
O         0.0070246542        0.0042384349        0.0001503382
O         0.0028940443        0.0017422126        0.0021853892
O         0.0028872006       -0.0004759245       -0.0060329531
O        -0.0004837230        0.0117428244       -0.0060697958
O         0.0035862788       -0.0005494878        0.0019592293
O         0.0079893521        0.0018287279       -0.0081276226
O         0.0011310634       -0.0002211770       -0.0025782150
O         0.0009339561       -0.0060607083       -0.0026404269
O        -0.0009456400       -0.0063756519       -0.0043454143
O         0.0094971051       -0.0033387001        0.0069206391
O         0.0019334959       -0.0029791129       -0.0001681708
O        -0.0002808783       -0.0032757826       -0.0004055472
O        -0.0030329587       -0.0078812851       -0.0021611504
O        -0.0027139275        0.0062600469        0.0050643153
O        -0.0036127967        0.0000066965        0.0028249668
O         0.0038016019       -0.0007755630        0.0030032093
O        -0.0001044214       -0.0010347751       -0.0014321138
O         0.0003033270        0.0005872656       -0.0018771566
O         0.0133281715       -0.0056388663       -0.0035632125
O        -0.0002097046        0.0020809531        0.0049427269
O        -0.0035793260       -0.0024123360        0.0010166638
O         0.0026401348        0.0009772554        0.0020953620
O        -0.0062757961        0.0045006891        0.0068472230
O        -0.0006226724        0.0062123696        0.0013057364
O        -0.0035969142        0.0035452409       -0.0017906751
O         0.0039860581        0.0001149345       -0.0084816056
O        -0.0040374729        0.0101565472        0.0009521695
O        -0.0038698569        0.0031774836        0.0011320255
O        -0.0007500161       -0.0097614222       -0.0073066461
O         0.0113285546        0.0038441953        0.0019757899
O        -0.0007555987        0.0022683845        0.0009159037
O         0.0025251182        0.0004463885       -0.0027083565
O        -0.0002117922       -0.0014683425        0.0015422083
O        -0.0081794184       -0.0002762498       -0.0033975307
O         0.0000734985       -0.0001379338        0.0031313957
     192
 i =        3, E =     -5776.7729828704
Ti        -0.0021250847        0.0014780969        0.0024018889
Ti         0.0035358530       -0.0017540204       -0.0019678157
Ti        -0.0032939323       -0.0041058237       -0.0065782302
Ti         0.0007622068        0.0121061078        0.0007417825
Ti         0.0036552956        0.0014207501        0.0003648061
Ti        -0.0055888997        0.0042615076       -0.0035085760
Ti        -0.0041969198        0.0004087914       -0.0027754197
Ti         0.0004868796        0.0007692145        0.0036423853
Ti        -0.0042161762       -0.0029555351       -0.0017066431
Ti         0.0017971851       -0.0038435264       -0.0025892942
Ti        -0.0063954554       -0.0020211360        0.0001332268
Ti         0.0015737669        0.0009281420       -0.0004150560
Ti         0.0061462873       -0.0055687752       -0.0037143509
Ti         0.0008611485        0.0068061006        0.0085273239
Ti        -0.0046729969        0.0011504852       -0.0020504326
Ti        -0.0016894192        0.0120947806       -0.0048699990
Ti        -0.0004119738        0.0011177180       -0.0041365511
Ti         0.0006263236        0.0050054469        0.0015377087
Ti         0.0083535159        0.0072261363       -0.0014009997
Ti         0.0031294888       -0.0050989087       -0.0058214116
Ti         0.0013936904        0.0003997797       -0.0061038694
Ti        -0.0043219072       -0.0077955340       -0.0031352092
Ti         0.0046172125        0.0014543686        0.0053327914
Ti        -0.0085222790        0.0067631205       -0.0025876505
Ti        -0.0041308790       -0.0013167005        0.0051721517
Ti        -0.0082794686        0.0000227923       -0.0017865840
Ti         0.0049286487        0.0027165954       -0.0015372052
Ti        -0.0008012584        0.0047676914        0.0011062381
Ti         0.0021644009        0.0068014005        0.0032331088
Ti         0.0027584958        0.0090798573        0.0052500080
Ti        -0.0011574451        0.0024429940        0.0025166638
Ti        -0.0049506124       -0.0003374121        0.0026167615
Ti         0.0082129108        0.0009888247       -0.0043911745
Ti        -0.0043280989        0.0039215470       -0.0026253420
Ti         0.0034524049       -0.0019522584       -0.0068657161
Ti         0.0147335975       -0.0062867136       -0.0064351485
Ti        -0.0001561239        0.0009707320        0.0023324722
Ti        -0.0034861946       -0.0001219990        0.0051582868
Ti        -0.0055464641        0.0041704855       -0.0040720149
Ti        -0.0024410606        0.0102557951       -0.0020432628
Ti        -0.0077827389        0.0024234206        0.0056340637
Ti         0.0030102798        0.0061970202        0.0007845993
Ti         0.0060330130        0.0021872644       -0.0051153268
Ti        -0.0012086822        0.0051478827        0.0015418110
Ti         0.0006083844       -0.0044764880       -0.0061159443
Ti        -0.0044222178       -0.0017432707       -0.0018078202
Ti         0.0085158330        0.0024691892       -0.0043260947
Ti         0.0027108468        0.0084044998       -0.0009427545
Ti        -0.0015639598        0.0076832653        0.0066214734
Ti        -0.0025942920        0.0031882503       -0.0001481465
Ti        -0.0040200707        0.0065461942        0.0041213940
Ti        -0.0055052069       -0.0047162076        0.0016593175
Ti         0.0025862684        0.0009041870       -0.0027256371
Ti         0.0021997894       -0.0033386920       -0.0015530344
Ti        -0.0005341001       -0.0028352991        0.0041599428
Ti         0.0030838090        0.0044528382       -0.0010178036
Ti        -0.0024403358        0.0011731424       -0.0008452739
Ti         0.0057014556       -0.0111603482       -0.0000062008
Ti         0.0028532444        0.0046625007        0.0036732104
Ti        -0.0047575316       -0.0012750872        0.0037262301
Ti        -0.0036091657        0.0013848172        0.0041156982
Ti        -0.0022675347       -0.0098262088        0.0017911966
Ti         0.0039232313        0.0009932637        0.0017135420
Ti        -0.0048224467        0.0051160459       -0.0007408362
O        -0.0010381040        0.0033591650        0.0045070593
O         0.0020138574       -0.0027827787        0.0040949942
O        -0.0042430944        0.0013253696        0.0039924031
O         0.0019858996        0.0020501033        0.0015656857
O         0.0022019277       -0.0001367528       -0.0030255821
O         0.0024170463       -0.0035135129        0.0030715525
O         0.0035937358       -0.0020288615        0.0033315591
O         0.0050540116        0.0005796090       -0.0005678366
O         0.0033226167       -0.0058670160       -0.0014998365
O        -0.0018615035       -0.0037661891       -0.0012641349
O         0.0014447232        0.0005980315        0.0024353339
O         0.0022309096       -0.0010031484       -0.0004161376
O        -0.0009260543       -0.0015281583        0.0019002656
O        -0.0028498828       -0.0023716351       -0.0033947032
O         0.0032961732       -0.0063017894        0.0005580504
O         0.0038941298       -0.0011290833        0.0021795128
O         0.0002135734        0.0003693574       -0.0009206745
O         0.0035884174       -0.0010639361       -0.0033419637
O        -0.0032022289        0.0017131987        0.0009680388
O         0.0039106874        0.0044480336        0.0034558628
O         0.0018537140        0.0014711758        0.0035314691
O         0.0036190781       -0.0023491198        0.0058831411