     192
 i =        1, E =     -5775.3092110118
Ti        -0.0629559969        0.0974146214        0.0640372831
Ti         1.8651762940        1.9222568529        4.8971528657
Ti         0.0460492962        2.0286158774        2.5281698389
Ti         1.8622845117       -0.0442431103        7.1749144066
Ti        -0.0307273868        3.8291048037       -0.0522606197
Ti         1.9481243603       13.1900156673        4.8327154665
Ti        11.2889456169        1.9802679967        2.4498000858
Ti         5.6060263428       -0.0892574389        7.2222641461
Ti         1.9034534059        3.8192301430        7.2343520445
Ti         0.0283520016       13.3435093352        2.4746885651
Ti         5.6773413543        1.8306650241        4.8268333644
Ti        11.3018503180        0.1141603399       -0.0427387951
Ti         3.6787267267        0.0948565742        0.0505254907
Ti        13.1226386339        1.7711637579        4.7063207042
Ti        13.2635112656       -0.0456539279        7.1540899080
Ti         3.7522108548        1.8042721706        2.5184051025
Ti         1.9701843523        5.6382640578        4.8519129197
Ti         0.0070474369       11.5814138019       -0.0011363380
Ti        -0.0199777198        5.7249413427        2.4875800474
Ti         1.9040953163       11.3210592077        7.3586502880
Ti         0.0691821915        7.4869645425        0.0489319512
Ti         2.0407486367        9.5180311455        4.9036080282
Ti         7.4999771451        1.9540061640        2.3538200328
Ti         9.4653740082       -0.1292513977        7.2272810218
Ti         1.9469148515        7.5763131176        7.1607881905
Ti         0.1326457657        9.5817952316        2.4877910908
Ti         9.3292014528        1.8083209964        4.7653930412
Ti         7.4657938404       -0.0620203690       -0.0779186201
Ti         3.7309946185        3.7822494086       -0.0052805222
Ti        13.2334803345       13.1275546532        4.7437826123
Ti        11.3769142853        5.7271800785        2.3759808926
Ti         5.6741712521       11.3276055256        7.1530934144
Ti        13.1716080534        3.6791601522        7.2425534398
Ti         3.7738528687       13.1638909701        2.4445061520
Ti         5.6762980193        5.7209873522        4.8446304464
Ti        11.2247022319       11.3881517205        0.1045688599
Ti        11.2862529147       13.3376191092        2.3545841570
Ti         5.6530667600        3.7263999610        7.1308181944
Ti         3.8816923075       11.4214931393        0.0418609366
Ti        13.2842318033        5.5848146961        4.8974793217
Ti         5.7948494415       13.2066889393        4.8090632449
Ti        11.2717414417        3.7914943915       -0.0769220160
Ti        13.0933785103       11.3812321413        7.2637800223
Ti         3.7943988182        5.6153590717        2.3917379649
Ti         3.7991253205        7.5555531326        0.0471395064
Ti        13.2987078895        9.4201952348        4.8377231481
Ti         7.5254496531        5.6750333631        2.3902321329
Ti         9.4237933132       11.1468006115        7.1759586291
Ti        13.3030126984        7.5405726047        7.2326848859
Ti         3.8880131184        9.4484277831        2.3375057959
Ti         9.5183525049        5.5585546854        4.7072063747
Ti         7.5314305217       11.3454972167        0.0657352470
Ti        11.4028315689        9.4507208055        2.4131663015
Ti         5.6582194352        7.6046521342        7.1983864358
Ti         5.7758398801        9.4248111997        4.7450275040
Ti        11.3223444189        7.5722450761        0.0085025168
Ti         9.4256939531        3.6457307585        7.1679568936
Ti         7.5400017038       13.3055444184        2.4092189279
Ti         7.4656678622        3.8001681519       -0.0661168372
Ti         9.5085551486       13.2432610683        4.7799054205
Ti         7.5986731964        7.5367387933       -0.0575604241
Ti         9.5252067680        9.3933398939        4.7598571175
Ti         7.6405318230        9.4205130226        2.3241957324
Ti         9.5133794065        7.3595589565        7.1440696888
O         0.0530183289        0.0800608280        2.0881078790
O         1.6770804863        1.9376835894        6.7346883262
O        -0.0715876768        1.9992357454        4.4088683841
O         1.7995207969        0.1454380032        9.2348943307
O         1.8118604129       -0.0188889025        5.2652450432
O        -0.1463822673        2.0067049435        0.4938223919
O         1.8656465622        2.1699715095        2.8366636507
O        -0.0735361366       -0.0491267320        7.6250753020
O        -0.0306941112        3.9104253605        2.0826803695
O         1.9922854076       13.2738002379        6.8193016358
O        11.2891257234        1.8290914261        4.3114659171
O         5.6345245684       -0.0191298130        9.2606424786
O         2.1061564761        3.7572363257        5.1821929311
O         0.0487524797       13.3770265539        0.4426040912
O         5.6325277211        1.8595833095        2.8402594982
O        11.2814971360        0.0650627007        7.5688226894
O         3.7104267759        0.1116889359        7.6953144798
O        13.1892037858        1.8758264466        2.8362944235
O        13.1741095417       -0.0995578428        9.2134994676
O         3.7096711654        1.6579281638        4.3719974107
O         1.9081103473        5.6217726353        6.7387058098
O         0.0547475856       11.4493941355        1.9100544753
O         0.0829306932        5.7138337857        0.4725388132
O         1.9113431838       11.3155286576        5.2405496618
O         0.1231544041        7.7283766325        1.9439086123
O         2.1487483386        9.4625426229        6.7766677793
O         7.4561738305        1.8675735024        4.3598268356
O         9.4170749254        0.0328256665        9.1969788280
O         1.8282481971        7.5682259417        5.2776672238
O         0.1084879548        9.5678540410        0.2706256226
O         9.3708227071        2.0372539214        2.8422127630
O         7.4806557308       -0.1585699109        7.7038788305
O         3.7478258552        0.0596681704        2.0355389471
O        13.2209292293        1.8483127925        6.7798145307
O         0.0024475139        5.6040727645        4.4850683254
O         1.9278823656       11.3567671480        9.2596430714
O        13.1759353148       -0.0285099400        5.1349395162
O         3.7065945649        1.9527392468        0.4360842713
O         1.9475039522        5.7957466791        2.9157246549
O         0.1027093491       11.4242450921        7.5737514713
O        11.3456366761        2.0066993094        0.2883784953
O         5.8143815092       -0.0899752892        5.2781042210
O         5.5718207291        1.8286059726        6.7804666678
O        11.2715959510        0.1399242916        1.8930204137
O         1.9089995859        3.8323326923        9.1998889774
O        -0.0230749345       13.1594888887        4.4532356823
O         0.0226450971        3.7958524901        7.6808886082
O         1.8877115625       13.2375400809        2.8695709135
O         3.9575564897        3.8414868461        2.0676235604
O        13.1106124338       13.2700126183        6.7302032880
O        11.3687847063        5.6613278343        4.3817985339
O         5.6882078885       11.4654294926        9.2239639918
O        13.1787843777        3.8049736348        5.2254583184
O         3.6434478499       13.3084296089        0.5120357523
O         5.7436537530        5.9041418699        2.7439606204
O        11.3026656298       11.3369236559        7.6554804245
O        11.2532069000       13.2677767830        0.4132410446
O         5.5056222210        3.7166524468        5.1870504965
O         3.7897276967       11.3704509665        7.6857390020
O        13.2803368084        5.9206819525        2.8729717256
O         5.5240492702       13.2012246041        6.7776805642
O        11.5333643461        3.8319927561        1.9178246733
O        13.2413674608       11.4101991202        9.2061950067
O         3.8626024803        5.7134980859        4.4013287966
O         5.7626230879        5.6325095076        6.7316713088
O        11.1285764535       11.4637838326        1.9952503975
O        13.2114419779        3.9037591029        9.1352953171
O         3.7949967954       13.2141610421        4.3864619249
O        11.3555499093        5.7367375965        0.4148665982
O         5.7929853077       11.3039416363        5.2402175419
O         3.7413637103        3.7246758458        7.6535579216
O        13.2136485259       13.2184523967        2.7205631250
O        13.0591559121       11.4118268682        5.1576965616
O         3.7139057520        5.6738783053        0.4312277133
O         5.6962739581       13.1718316608        2.8700701726
O        11.2937781416        3.5641171773        7.5602834049
O         3.9587940755       11.4092170059        1.9619738421
O        13.2160700449        5.6405705763        6.8909444197
O        11.2844862045       13.3417554386        4.3197219530
O         5.6659464569        3.8103262395        9.1393021087
O         3.7833633978        7.6419480085        1.9244994949
O        13.3085171132        9.5865860289        6.7496017689
O         7.5699318724        5.5303630952        4.3189363937
O         9.4254973316       11.3212274887        9.2244839902
O        13.2689611668        7.5881283322        5.4234612905
O         3.8077563206        9.5215962237        0.3636775921
O         9.5592722942        5.5826578864        2.7943104027
O         7.5184129753       11.3399707157        7.5745961408
O        11.3418524590        9.4916503366        0.4131221262
O         5.7342944329        7.5692482233        5.1645325032
O         5.5592993779        9.4180116072        6.7582574756
O        11.2304610838        7.6064061854        2.0179205159
O         9.4385331728        3.9442495460        9.1454963713
O         7.5889472398       13.0510435196        4.4509537096
O         7.5002241069        3.6503403625        7.5502101999
O         9.4304813995       13.4579235651        2.8565992125
O         7.4453896553       -0.0416814392        2.0319659523
O         9.2213058111        1.8093948289        6.7213124422
O         0.0781230416        9.3742012950        4.4395420686
O         1.9258997068        7.5836024935        9.1992360406
O         9.3170131070       -0.0318118717        5.1998140472
O         7.6265175124        1.9059640839        0.4441220094
O         1.9651965956        9.6900173088        2.7737218357
O         0.0416121417        7.5693306499        7.6203710992
O         7.5190797060        3.7945505998        1.9448543501
O         9.5052601980       13.2126663417        6.7371615017
O        11.4387550702        9.2319891838        4.3748439381
O         5.6677387270        7.6899814829        9.1205788950
O         9.4779534727        3.6873165781        5.1880993254
O         7.5672310881       13.2201333844        0.4241978942
O         5.7428718570        9.3977629940        2.7182559011
O        11.3004556385        7.6410930204        7.6013693401
O         3.7895277682        7.3703526562        7.6076930378
O        13.3242733987        9.6115206530        2.8111083177
O        13.2667958668        7.6757653012        9.3186954714
O         3.8502735461        9.4221985142        4.2922023530
O         9.6037891913        5.5302080420        6.7507633243
O         7.6411722643       11.3270495475        1.9521086027
O         7.3501863965        5.6974673723        0.3754122958
O         9.5587077866       11.2266348465        5.2029125313
O         7.8472475240        7.5924324745        1.9209317279
O         9.4529909079        9.4219208723        6.8060028180
O         7.5551804345        9.3762894651        4.3226415577
O         9.4714463826        7.4442837113        9.2141911926
O         9.3634999119        7.4811922984        5.2483312365
O         7.5187804832        9.4702212006        0.3673702416
O         9.5718473139        9.5055556768        2.8736686080
O         7.5953952454        7.5412577537        7.5911299425
     192
 i =        2, E =     -5775.4050657218
Ti        -0.0591434856        0.1163283710        0.0314747167
Ti         1.8567949162        1.9276807971        4.8795200793
Ti         0.0366618126        2.0092125074        2.4899055627
Ti         1.8441305733       -0.0635888071        7.1935017233
Ti        -0.0537554850        3.8288151106       -0.0310055742
Ti         1.9489863924       13.2064868890        4.8409667593
Ti        11.3015412165        1.9577878370        2.4305785567
Ti         5.6015151924       -0.0752430004        7.2143855252
Ti         1.9047755441        3.8048334967        7.2471284474
Ti         0.0085864375       13.3329328462        2.4592183442
Ti         5.6847218411        1.8514481385        4.8110126005
Ti        11.2891767184        0.0923028725       -0.0314149762
Ti         3.6611834871        0.0808747765        0.0347352545
Ti        13.1624862082        1.7946361088        4.7385276821
Ti        13.2631561324       -0.0402103266        7.1782155612
Ti         3.7651649935        1.8374683324        2.5028136214
Ti         1.9622724292        5.6560201437        4.8334393226
Ti         0.0040986647       11.5745429962       -0.0122156090
Ti        -0.0130882586        5.7074858933        2.4788887337
Ti         1.8846374482       11.3457861426        7.3267693370
Ti         0.0322096817        7.4802436258        0.0248676348
Ti         2.0240642448        9.5180448379        4.8638269421
Ti         7.5000719232        1.9543592503        2.3353882301
Ti         9.4803602630       -0.1073658490        7.2247830213
Ti         1.9374626676        7.5724811775        7.1767856600
Ti         0.1028971124        9.5524201374        2.4992045202
Ti         9.3525252450        1.8229761477        4.7916072499
Ti         7.4670474229       -0.0350110136       -0.0604210070
Ti         3.7402134649        3.7720728216        0.0053350247
Ti        13.2290781765       13.1206660811        4.7810094921
Ti        11.3592693747        5.7157032809        2.3857617854
Ti         5.6735550838       11.3203905069        7.1768571462
Ti        13.1644100500        3.7046162665        7.2300285992
Ti         3.7818612621       13.1956388207        2.4452208401
Ti         5.6995587143        5.6974672297        4.8314379682
Ti        11.2242722611       11.3863763967        0.0797596390
Ti        11.3053213474       13.3147292187        2.3464751823
Ti         5.6634323092        3.7237176821        7.1436914855
Ti         3.8636479773       11.3969925197        0.0195309660
Ti        13.2731377691        5.5947591889        4.8692430651
Ti         5.7707152900       13.2022119834        4.8064972257
Ti        11.2659402211        3.7992354717       -0.0435338553
Ti        13.1238918652       11.3549749437        7.2594094790
Ti         3.8061069885        5.6355946881        2.3964437779
Ti         3.7880592289        7.5810369868        0.0289858119
Ti        13.2790526061        9.4293017404        4.8438473080
Ti         7.4971822812        5.6821568126        2.4115293457
Ti         9.4130057636       11.1810953262        7.1698527861
Ti        13.2952728411        7.5274656810        7.1966447591
Ti         3.8610070059        9.4369775173        2.3529431721
Ti         9.5198333558        5.5715358216        4.7294862788
Ti         7.5639202937       11.3544909232        0.0383394270
Ti        11.3916543059        9.4548504112        2.4338468596
Ti         5.6649533230        7.5812463678        7.2230870781
Ti         5.7691688974        9.4182771938        4.7607075626
Ti        11.3301076695        7.5856605280        0.0003221192
Ti         9.4357733745        3.6650099540        7.1746496356
Ti         7.5409508091       13.3208353117        2.3898615153
Ti         7.4747531444        3.7994108216       -0.0569262782
Ti         9.4958976096       13.2374272953        4.7903489938
Ti         7.6097213531        7.5369982820       -0.0620241393
Ti         9.5236415861        9.4215010731        4.7803218830
Ti         7.6134739638        9.4161943980        2.3316410895
Ti         9.5168339467        7.3912288530        7.1549926697
O         0.0546815540        0.0639866125        2.0206894138
O         1.7673721773        1.9177490082        6.7603831161
O        -0.0228516238        1.9729155206        4.3883907783
O         1.7967892491        0.1190868697        9.2052797022
O         1.8193245807       -0.0099134807        5.2733931173
O        -0.1074139816        2.0072321993        0.4570567406
O         1.8641012436        2.0728761847        2.8191801066
O        -0.0538344544       -0.0511856333        7.6455111958
O        -0.0601703945        3.8892080256        2.0674391573
O         1.9824502749       13.2476425080        6.8295411717
O        11.2959062646        1.8437659046        4.3337390040
O         5.6054245327        0.0202938905        9.2413518504
O         2.0485587939        3.7797061120        5.2018609354
O         0.0440986843       13.3763772705        0.4424106888
O         5.6335297882        1.9294063838        2.8270209292
O        11.3077009841        0.0721227144        7.5800891410
O         3.7021479405        0.0722241726        7.6729814957
O        13.1878890659        1.9002548304        2.8471590223
O        13.1848204266       -0.0109380704        9.1839519858
O         3.7233405770        1.6978271719        4.3883449100
O         1.8723431175        5.6357799878        6.7660366444
O         0.0268283797       11.4230564880        1.9029595870
O         0.0345009118        5.7066681330        0.4628668318
O         1.8907779477       11.3338504168        5.2498551474
O         0.1258368510        7.7006399691        1.9282724914
O         2.0512241380        9.4670884412        6.7881558038
O         7.4994989629        1.9130743479        4.3756802289
O         9.4170905377        0.0074173046        9.1657505201
O         1.9012201062        7.5644456210        5.2752584251
O         0.0799904814        9.5427411982        0.2658074161
O         9.3815590419        1.9713175380        2.8263899507
O         7.4773107580       -0.1271900203        7.6797014629
O         3.7356584264        0.0690622122        2.0270760161
O        13.2721434339        1.8656591062        6.7835997310
O         0.0096378540        5.5942527811        4.4580924760
O         1.8907217855       11.3579270487        9.2367389703
O        13.2270437202       -0.0023217193        5.1768261790
O         3.7138344129        1.9342584105        0.4493900585
O         1.9430472499        5.7403642241        2.8751193553
O         0.0552034206       11.4345094639        7.6098265157
O        11.3202038659        1.9838236125        0.3184593848
O         5.7807479742       -0.0588154410        5.2580157582
O         5.6321851059        1.8234823651        6.7715645987
O        11.3009314914        0.1286743154        1.9144689373
O         1.8874254871        3.8180158859        9.2303026222
O        -0.0136676717       13.2106573322        4.4046070607
O         0.0035585967        3.7717795057        7.6833501165
O         1.8791492863       13.2362348635        2.8689222645
O         3.8961413897        3.8529806092        2.0518007836
O        13.1577013822       13.2368813621        6.7804210701
O        11.3677738806        5.6612193081        4.3976213155
O         5.6944842504       11.4466494464        9.2223850403
O        13.1569223605        3.8082202787        5.2273145801
O         3.6562731663       13.2958309283        0.4836072391
O         5.7134813206        5.8669843568        2.7680970211
O        11.3216597952       11.3338429906        7.6203081025
O        11.2780250536       13.2721067515        0.3922638888
O         5.5908087547        3.7205544468        5.1949174986
O         3.7935583585       11.3752219772        7.6675342881
O        13.2887901002        5.8943814622        2.8695971096
O         5.5259585127       13.2037506614        6.8024449120
O        11.4617425879        3.8072739442        1.9586170994
O        13.2590278856       11.4331763231        9.1909355658
O         3.8566564648        5.7202301279        4.3981247202
O         5.7458417347        5.6315832816        6.7273458331
O        11.2308540003       11.4125634921        2.0020779012
O        13.2099039715        3.8850653920        9.1428001467
O         3.7795690973       13.2263260952        4.4103178666
O        11.4012359494        5.7441628370        0.4127466599
O         5.7400463489       11.2888144834        5.2548681824
O         3.7558762278        3.7280181843        7.6656703950
O        13.2308868918       13.2740521084        2.7864169971
O        13.0998344201       11.3504744208        5.1664519680
O         3.7418675365        5.6817543247        0.4332473469
O         5.6941924780       13.2326720528        2.8588941508
O        11.3038655179        3.5853031713        7.5846841097
O         3.9208041135       11.4029075515        1.9793292869
O        13.2257185460        5.6543617736        6.8278774453
O        11.3031496851       13.2943062386        4.3353858280
O         5.6592193707        3.7831323863        9.1554768429
O         3.7550098375        7.6152500796        1.9344302336
O        13.3046995630        9.5462692441        6.7793204261
O         7.5868656021        5.5261821181        4.3254317687
O         9.4334842873       11.3072192449        9.1686216955
O        13.3059201709        7.5770785604        5.3463695745
O         3.7977244513        9.5113399677        0.3894228766
O         9.5072371286        5.5823162124        2.8046373599
O         7.5203944358       11.3187774990        7.5693522401
O        11.3597311629        9.4847862064        0.4757827896
O         5.7442627378        7.5489919661        5.1856872890
O         5.6168777646        9.4035943082        6.7663508376
O        11.3051342755        7.6173836009        1.9953202191
O         9.4188907959        3.9195821759        9.1439975162
O         7.5726129522       13.0951188504        4.4010224509
O         7.5196191847        3.6981217326        7.5806247135
O         9.4262062427       13.3591584317        2.8278978693
O         7.4843939135       -0.0017103930        2.0260125586
O         9.2885463074        1.8254993199        6.7538568648
O         0.0510063037        9.4462742328        4.4196057114
O         1.9031037969        7.6623544067        9.2093166007
O         9.3665455746       -0.0215296702        5.2065178831
O         7.5469172066        1.9145136093        0.4169928854
O         1.9339644318        9.6245494039        2.7737965355
O         0.0308249486        7.5810513240        7.6207014792
O         7.4826461812        3.8172762665        1.9428964329
O         9.4843956291       13.2214034507        6.7575389022
O        11.4107439223        9.2566249533        4.3952489700
O         5.6700339244        7.6341139814        9.1497557971
O         9.4546687739        3.7124911148        5.2008116562
O         7.5822211766       13.2519857880        0.4338220012
O         5.7299887048        9.4163184372        2.7607339292
O        11.3362137225        7.6162536289        7.6435829572
O         3.7820093176        7.4095803154        7.5991767242
O        13.2908204855        9.5979924272        2.8188983158
O        13.2673055747        7.6511136614        9.2130357760
O         3.8434922688        9.3951924192        4.3156366869
O         9.5369531821        5.5650544299        6.7607531247
O         7.6598599728       11.3275838661        1.9460719892
O         7.4293164919        5.6915587360        0.4116568527
O         9.5517444113       11.2526451626        5.2117119249
O         7.7824001913        7.5607883123        1.9380043357
O         9.4698067335        9.4141308944        6.8315431961
O         7.5783767182        9.3883293947        4.3383555956
O         9.4701471296        7.5040857984        9.1783493817
O         9.4131848465        7.4926766184        5.2383272474
O         7.5331032309        9.4561440513        0.3739909443
O         9.5273321263        9.5003202645        2.8694858571
O         7.5900025352        7.5141658766        7.6018811990
     192
 i =        3, E =     -5775.4441198186
Ti        -0.0471597035        0.1183731117        0.0168800638
Ti         1.8637190171        1.9190108060        4.8642427605
Ti         0.0338120085        2.0033705632        2.4716023275
Ti         1.8485958999       -0.0532383856        7.2018431027
Ti        -0.0628866585        3.8141457403       -0.0299452091
Ti         1.9462965417       13.2233852572        4.8282625425
Ti        11.3253178016        1.9432716949        2.4328384141
Ti         5.6043559962       -0.0493677002        7.2099169663
Ti         1.9006808557        3.7935468198        7.2456763862
Ti         0.0054987317       13.3339162879        2.4485714938
Ti         5.6892559433        1.8604834193        4.8103428081
Ti        11.2855613143        0.0811104519       -0.0260625579
Ti         3.6719325359        0.0804524990        0.0268957667
Ti        13.1808161828        1.8142210131        4.7709824351
Ti        13.2474477908       -0.0267995163        7.2000908989
Ti         3.7731161213        1.8454200650        2.4819785661
Ti         1.9577860610        5.6657132520        4.8261876493
Ti        -0.0064093073       11.5653461339       -0.0260362519
Ti        -0.0066548468        5.6976734107        2.4716535366
Ti         1.8694014427       11.3540853617        7.2902392165
Ti         0.0151073916        7.4864975046        0.0031239040
Ti         2.0036047325        9.5183365492        4.8473263679
Ti         7.5149906783        1.9472689138        2.3341309235
Ti         9.4683529368       -0.0889990946        7.2158895520
Ti         1.9254510404        7.5684983119        7.1770142156
Ti         0.0826221446        9.5341733507        2.4986888767
Ti         9.3674768383        1.8384274310        4.7874920449
Ti         7.4671974111       -0.0121169439       -0.0554003557
Ti         3.7454832676        3.7796636444        0.0142003139
Ti        13.2318340010       13.1449554654        4.7845735538
Ti        11.3621965533        5.7088663921        2.3936180664
Ti         5.6702348964       11.3185924197        7.1921837036
Ti        13.1771220922        3.7220096101        7.2186945936
Ti         3.7810866069       13.2204887558        2.4232472482
Ti         5.7006331932        5.6790175092        4.8406140414
Ti        11.2433558931       11.3892711002        0.0507221475
Ti        11.3235698283       13.2944259022        2.3709132596
Ti         5.6653627210        3.7311848760        7.1623660399
Ti         3.8420590282       11.3898735311        0.0188234296
Ti        13.2703002507        5.5980641633        4.8470651219
Ti         5.7435817689       13.2026205944        4.8007547103
Ti        11.2708864876        3.7964742138       -0.0200595647
Ti        13.1655631418       11.3315848142        7.2699318866
Ti         3.7968424592        5.6358463456        2.3942437053
Ti         3.7744987166        7.5946935861        0.0159618596
Ti        13.2776492131        9.4410117263        4.8408694657
Ti         7.5023817173        5.6900628689        2.4037902571
Ti         9.4204872821       11.2096869842        7.1652052446
Ti        13.2940062705        7.5220793532        7.1843160257
Ti         3.8395575734        9.4349029532        2.3780231731
Ti         9.5009843156        5.5845917670        4.7467607488
Ti         7.5708718850       11.3474731405        0.0230319893
Ti        11.3994837189        9.4568412759        2.4258752076
Ti         5.6720203325        7.5584155825        7.2362926835
Ti         5.7580397691        9.4128076370        4.7782717341
Ti        11.3511525466        7.5908391532       -0.0124016078
Ti         9.4326023874        3.6895670174        7.1849259460
Ti         7.5486399400       13.3274846104        2.3829891773
Ti         7.4816871043        3.8039867970       -0.0441801162
Ti         9.4877330563       13.2298594122        4.7882178132
Ti         7.6111792373        7.5396797245       -0.0576676452
Ti         9.5151878629        9.4282720403        4.7758293988
Ti         7.6064131813        9.4345305852        2.3549570474
Ti         9.5100208450        7.4332444135        7.1673507884
O         0.0422739876        0.0745811096        1.9898549788
O         1.8146485595        1.9134143768        6.7704216671
O         0.0046726639        1.9374243150        4.3896639769
O         1.8161697629        0.1192482023        9.2013734155
O         1.8111016729       -0.0128558587        5.2690947546
O        -0.0921216880        1.9927328469        0.4490974761
O         1.8680806245        2.0231932245        2.8060522458
O        -0.0404182331       -0.0601759110        7.6424760583
O        -0.0855293699        3.8746829119        2.0440686538
O         1.9517105793       13.2330124356        6.8252200232
O        11.2933355482        1.8539961613        4.3671117219
O         5.5919239527        0.0155403970        9.2214991728
O         2.0045837513        3.7857101918        5.2176508784
O         0.0306792926       13.3618873987        0.4357442544
O         5.6458326107        1.9630781092        2.8225630780
O        11.3043616245        0.0546354955        7.5901619299
O         3.7112971252        0.0301720636        7.6680605767
O        13.2022156917        1.8961114999        2.8600189895
O        13.1935096437        0.0553251706        9.1720915952
O         3.7490002695        1.7349162343        4.3963633400
O         1.8615317866        5.6492031195        6.7914410961
O        -0.0089282494       11.4064108636        1.9053886458