     192
 i =        1, E =     -5775.3092110118
Ti        -0.0042620386        0.0139314531       -0.0061301620
Ti        -0.0077595119       -0.0032922026       -0.0165449261
Ti        -0.0068816012        0.0019732336       -0.0146206540
Ti        -0.0069837661        0.0093517811        0.0131489204
Ti        -0.0049155687       -0.0070863543        0.0141846169
Ti         0.0021976801        0.0039333242        0.0039186852
Ti         0.0046863702        0.0037466382       -0.0263448983
Ti         0.0003209239        0.0075345700        0.0055110713
Ti        -0.0006229373       -0.0139473111       -0.0054935313
Ti        -0.0127271247       -0.0024862636        0.0000483999
Ti        -0.0141119259        0.0038087389        0.0002163406
Ti        -0.0041176306       -0.0076070607       -0.0015535666
Ti        -0.0000590474       -0.0054933546       -0.0058719675
Ti         0.0147924464        0.0057871635        0.0231999683
Ti        -0.0146901843        0.0082227825        0.0089872617
Ti         0.0030305403        0.0221187701       -0.0129219158
Ti        -0.0019035241        0.0062239063       -0.0195354408
Ti        -0.0019097264        0.0018748602       -0.0113326078
Ti         0.0074741901        0.0024894021        0.0055698410
Ti         0.0086706189        0.0066166363       -0.0173782314
Ti        -0.0087384291        0.0073227973       -0.0107841129
Ti        -0.0040577178       -0.0116886610       -0.0309297887
Ti        -0.0022701145       -0.0110964224       -0.0079327430
Ti        -0.0038743582        0.0087620171       -0.0002396827
Ti        -0.0016225194       -0.0049940734        0.0105344520
Ti        -0.0002667341       -0.0066791255        0.0141155063
Ti        -0.0000873913        0.0020725693        0.0095138223
Ti         0.0144555420        0.0075583835        0.0287033576
Ti         0.0150421397        0.0007319405        0.0058537576
Ti        -0.0110292134        0.0204489270       -0.0080546776
Ti         0.0058397317       -0.0074155998        0.0021823129
Ti        -0.0009009798       -0.0035808077        0.0121675750
Ti         0.0046954198        0.0028804338       -0.0130304772
Ti         0.0056671386        0.0181389288        0.0005124603
Ti         0.0160668294       -0.0100069409       -0.0095665524
Ti         0.0009235267        0.0033397645       -0.0116402864
Ti         0.0009835290        0.0007752965       -0.0019577594
Ti        -0.0027077595        0.0005031887        0.0002791968
Ti        -0.0062447068       -0.0028785978       -0.0159776580
Ti        -0.0111160185        0.0094824634        0.0019035192
Ti        -0.0095066424       -0.0068843984       -0.0051629776
Ti         0.0039825204        0.0129304763        0.0109162106
Ti         0.0084008974        0.0020058526        0.0003428370
Ti         0.0047187883        0.0070587278        0.0065945605
Ti         0.0013639726        0.0103043997       -0.0186984722
Ti        -0.0004556477        0.0074037191       -0.0014890624
Ti         0.0021551095        0.0060014738       -0.0028260650
Ti        -0.0067378990        0.0274797746        0.0040675640
Ti        -0.0073163925        0.0002909910        0.0199881052
Ti        -0.0117160399        0.0049454790        0.0005203080
Ti        -0.0033771993        0.0014235287        0.0112026387
Ti         0.0091250577       -0.0001110035       -0.0145991263
Ti         0.0096990234        0.0053439025       -0.0064057067
Ti         0.0066191383       -0.0081449022        0.0062862401
Ti        -0.0117047880        0.0041651228        0.0017648992
Ti         0.0022456339        0.0092350381       -0.0071807799
Ti        -0.0045435985       -0.0015862025       -0.0026888556
Ti         0.0104135912       -0.0077758299       -0.0037677319
Ti         0.0098495702       -0.0026304891        0.0045163166
Ti        -0.0067487043       -0.0082742262        0.0103715981
Ti         0.0012515625        0.0032773480       -0.0038915778
Ti         0.0003286106        0.0008713026        0.0075065382
Ti        -0.0016912794        0.0044033359        0.0041238326
Ti        -0.0107825949        0.0073588592        0.0060690666
O         0.0015368226        0.0021064541       -0.0085699627
O         0.0095098000       -0.0025325316        0.0154533897
O         0.0166909134       -0.0040108824        0.0035083336
O         0.0033700840       -0.0035132041       -0.0055568119
O         0.0008170874        0.0007125347       -0.0059220108
O         0.0062130942       -0.0019317876       -0.0040559406
O         0.0036307346       -0.0130443897        0.0002428410
O         0.0174734267       -0.0007408868        0.0052932431
O        -0.0026930442       -0.0041854997       -0.0061540327
O        -0.0007768986       -0.0178746718        0.0017075723
O        -0.0133639203       -0.0007055227        0.0157314883
O        -0.0194979789        0.0046185089       -0.0038940732
O        -0.0065246743        0.0112700711        0.0072112998
O         0.0016245842       -0.0062934877        0.0024753405
O         0.0012314024        0.0059455538       -0.0020276624
O         0.0086337110        0.0007600456        0.0034464226
O         0.0012694351       -0.0042642137       -0.0047803842
O        -0.0014451596        0.0028369459       -0.0065746765
O         0.0079288733        0.0102649811       -0.0079500776
O         0.0063713339        0.0021081977        0.0159457801
O        -0.0040686488        0.0098522974        0.0171673185
O        -0.0004866757       -0.0084998749        0.0032300880
O        -0.0063998166       -0.0085232126       -0.0011388242
O        -0.0010714250        0.0153918474        0.0044615532
O        -0.0005794311       -0.0059540550        0.0000961536
O        -0.0080367991       -0.0013392556        0.0174974342
O         0.0182703554        0.0034000958        0.0037958420
O         0.0022198929       -0.0023272319       -0.0059362993
O         0.0086414214       -0.0007525109       -0.0051931969
O        -0.0031309146       -0.0047239173       -0.0021598517
O         0.0034981153       -0.0068383137       -0.0083145657
O        -0.0026988164        0.0030727151       -0.0218193462
O        -0.0001944692       -0.0123075342       -0.0017433347
O         0.0049829008        0.0035147787       -0.0048296058
O         0.0116624696       -0.0006809337       -0.0094185026
O        -0.0133354510        0.0007720763        0.0030155775
O         0.0048322374        0.0101642624        0.0062439895
O         0.0005749002       -0.0049204063        0.0074342872
O        -0.0079736124       -0.0062047374       -0.0072718374
O        -0.0239060982        0.0029671478        0.0121072908
O        -0.0030893969       -0.0150266280        0.0080862178
O        -0.0042314585        0.0149399072       -0.0043011648
O         0.0055605554       -0.0029158707       -0.0002357732
O         0.0035215345       -0.0011668994        0.0047244240
O        -0.0139299050       -0.0005827329        0.0056278980
O         0.0083703656        0.0051234327       -0.0120553314
O        -0.0073823317       -0.0011337103       -0.0062392500
O         0.0030357840       -0.0013908942        0.0015962699
O        -0.0069684552       -0.0081366835       -0.0074695225
O         0.0046239520       -0.0179858583        0.0037369819
O         0.0056410794       -0.0009738158        0.0025062087
O         0.0016074784       -0.0010826696       -0.0047210659
O        -0.0034939934       -0.0131524528        0.0009788281
O         0.0012944506        0.0012961190       -0.0089691156
O        -0.0160086816       -0.0043437465        0.0040349861
O         0.0019267942       -0.0002246639       -0.0001071940
O         0.0030391266        0.0126674567       -0.0051926607
O         0.0083321805       -0.0030683566        0.0034351833
O         0.0121215105       -0.0000509973       -0.0003738801
O         0.0033366723       -0.0047258734        0.0019459917
O        -0.0021705205       -0.0005364257        0.0058320198
O        -0.0092155818       -0.0069820858        0.0059177601
O         0.0070952638        0.0008478553       -0.0015660149
O        -0.0090436093       -0.0000821486       -0.0008476307
O        -0.0034402560        0.0061111522        0.0032877776
O         0.0126602762       -0.0201031828        0.0076788223
O         0.0007998125       -0.0005874788        0.0043635928
O        -0.0060218631        0.0008778023        0.0094728590
O         0.0051148151       -0.0039940133       -0.0011406278
O        -0.0088683320       -0.0048579881       -0.0024593425
O         0.0088398438        0.0000790587       -0.0007244580
O         0.0054180296        0.0064864823        0.0141064977
O         0.0022181892       -0.0330302206        0.0040811992
O         0.0030366228        0.0001589624        0.0026389397
O        -0.0030419655        0.0070442877       -0.0014223566
O         0.0066768761        0.0028817093        0.0033864018
O        -0.0023557651       -0.0134923580        0.0095339498
O         0.0007567327        0.0043362723       -0.0062997347
O         0.0217107620       -0.0046369839        0.0046084372
O        -0.0128048023       -0.0020157378        0.0025468633
O        -0.0020643839       -0.0116298951        0.0077203497
O        -0.0008795932       -0.0077906375        0.0092724353
O         0.0034831064       -0.0002028427        0.0027471110
O        -0.0067673621       -0.0015618896       -0.0104846323
O         0.0021242574       -0.0044662698       -0.0326988354
O         0.0007907624       -0.0029864043        0.0046891612
O        -0.0198491254       -0.0006809524       -0.0007139035
O         0.0074900106       -0.0016035877        0.0039461378
O         0.0041620308       -0.0028245991        0.0126003776
O        -0.0015506700       -0.0012213163        0.0064643487
O         0.0042056063        0.0009646380       -0.0037261171
O         0.0082980857        0.0020033006       -0.0078372805
O        -0.0121620190       -0.0029911400       -0.0036316765
O         0.0033509068        0.0047942166       -0.0094107348
O         0.0075817476        0.0041077174        0.0071646639
O        -0.0101051645       -0.0094538588       -0.0088550831
O         0.0038815248        0.0189876244       -0.0048669245
O         0.0080720692        0.0031534698        0.0075525161
O        -0.0005707449        0.0095469775       -0.0122145841
O        -0.0005109277        0.0086263000        0.0000360740
O         0.0057666583        0.0001068820       -0.0011316887
O        -0.0091374732       -0.0037839874       -0.0065325533
O        -0.0035547351       -0.0070084470        0.0035928512
O         0.0009480914        0.0007435585        0.0039130266
O        -0.0025548523        0.0098529112       -0.0020505546
O        -0.0031059588       -0.0062400574        0.0047348871
O        -0.0065456709        0.0036018879        0.0039022555
O        -0.0036580067       -0.0066479341        0.0074623532
O        -0.0021922263        0.0057168591        0.0015287363
O         0.0011638859        0.0127099072        0.0031981465
O         0.0034874735        0.0042502159        0.0058292348
O         0.0235936678       -0.0030213604        0.0113105478
O        -0.0023126261        0.0056604430       -0.0021464403
O        -0.0119787286       -0.0016686960        0.0007829235
O         0.0065909448       -0.0049902477       -0.0129525799
O        -0.0024614430       -0.0014339881        0.0081160648
O        -0.0068669268        0.0090297308        0.0000569059
O         0.0020993377        0.0004069754        0.0055288107
O         0.0081298493       -0.0022326721        0.0028943054
O        -0.0032541546        0.0071812749        0.0014058739
O        -0.0054281616       -0.0109296128        0.0030278093
O         0.0012100753       -0.0244767675       -0.0022513854
O         0.0233573971        0.0023735234        0.0011357755
O        -0.0077427240        0.0054347905       -0.0074190985
O         0.0042851542       -0.0033413444       -0.0055330104
O         0.0023068981       -0.0113445920        0.0027853613
O        -0.0216377309        0.0010857259       -0.0060532684
O        -0.0018255382       -0.0049000625        0.0046265596
     192
 i =        2, E =     -5775.4050657218
Ti        -0.0022376066        0.0045576881        0.0026705236
Ti         0.0013909139       -0.0044165570       -0.0052008595
Ti        -0.0033952475       -0.0023273175       -0.0115638235
Ti         0.0013685120        0.0174130328        0.0045870929
Ti         0.0025946419       -0.0048579896        0.0022912514
Ti        -0.0042738237        0.0063705306       -0.0049196323
Ti        -0.0003641413        0.0043981280       -0.0061251282
Ti        -0.0000839544        0.0078487555        0.0064202331
Ti        -0.0056979289       -0.0088516930       -0.0029669989
Ti        -0.0010124014       -0.0017290966       -0.0032420294
Ti        -0.0084293398        0.0000103779        0.0026093430
Ti         0.0027908391        0.0011455803       -0.0044937728
Ti         0.0049140873       -0.0042850382       -0.0040115736
Ti         0.0034378531        0.0072677991        0.0154217130
Ti        -0.0104821900        0.0086084799        0.0029956418
Ti        -0.0031326886        0.0144760059       -0.0098983457
Ti        -0.0000251344        0.0033853649       -0.0102581032
Ti        -0.0021336346        0.0053744385       -0.0055544522
Ti         0.0092366699        0.0052411159        0.0035765844
Ti         0.0011573025       -0.0030861414       -0.0120135640
Ti        -0.0026859086        0.0080860390       -0.0110965663
Ti        -0.0052851642       -0.0097252926       -0.0107827297
Ti         0.0041790244       -0.0015211616        0.0039881181
Ti        -0.0080342300        0.0088996398       -0.0008307433
Ti        -0.0060089323       -0.0022604870        0.0066679119
Ti        -0.0076246394       -0.0019184216        0.0036054355
Ti         0.0018877156        0.0059314438       -0.0030883933
Ti         0.0004436087        0.0096639154        0.0071337068
Ti         0.0061823660        0.0057932943        0.0062598455
Ti        -0.0011775050        0.0173148333       -0.0052764683
Ti         0.0017648133       -0.0002970541        0.0028736688
Ti        -0.0062355858       -0.0021326695        0.0052802005
Ti         0.0125341807       -0.0002508826       -0.0092039397
Ti        -0.0051865303        0.0110602948       -0.0053710539
Ti         0.0071297266       -0.0041906034       -0.0032281667
Ti         0.0156761015       -0.0065240715       -0.0102252170
Ti         0.0019075352       -0.0002861248        0.0076497380
Ti        -0.0020575397        0.0009201395        0.0033522153
Ti        -0.0077722349        0.0057507184       -0.0060356130
Ti        -0.0031592283        0.0094637897       -0.0021630173
Ti        -0.0102086041        0.0005970078        0.0027141350
Ti         0.0049032681        0.0071801648        0.0054197694
Ti         0.0112164275       -0.0008151066        0.0042345159
Ti        -0.0036967216        0.0047338187        0.0023619483
Ti        -0.0022284260       -0.0041340745       -0.0109512935
Ti         0.0004074149        0.0006572276       -0.0032278470
Ti         0.0123012408        0.0028829710       -0.0081259770
Ti         0.0015859281        0.0131409473       -0.0003812285
Ti        -0.0020268643        0.0061836013        0.0169214266
Ti        -0.0079321395        0.0044568331        0.0028679939
Ti        -0.0081998753        0.0043985889        0.0064806429
Ti        -0.0030847097       -0.0053422849       -0.0011833388
Ti         0.0083011212        0.0026158537       -0.0052651636
Ti         0.0056340644       -0.0089423953       -0.0023530487
Ti        -0.0038551843       -0.0030969967        0.0039660324
Ti         0.0068681057        0.0080401372       -0.0048428435
Ti        -0.0076597326        0.0014913666       -0.0020213556
Ti         0.0088425708       -0.0108431754        0.0003066392
Ti         0.0039862062        0.0056662375        0.0044783640
Ti        -0.0037726017       -0.0038784386        0.0043177637
Ti        -0.0024108524       -0.0021715210        0.0017234820
Ti        -0.0039782630       -0.0101201451        0.0003574421
Ti         0.0045793910        0.0028315442        0.0057357426
Ti        -0.0089237375        0.0072674982        0.0012895378
O        -0.0015808574        0.0115641475       -0.0010882630
O         0.0018093596        0.0009045544        0.0058090947
O         0.0024159966       -0.0041461803        0.0064799489
O         0.0077736146        0.0017043502        0.0012171454
O        -0.0016227580       -0.0037664573       -0.0055404063
O         0.0007592418       -0.0063717911        0.0042116100
O         0.0025649337       -0.0020617791       -0.0006321525
O         0.0073074430       -0.0016289231       -0.0011223191
O        -0.0016083296       -0.0047174094       -0.0038125606
O        -0.0032176703       -0.0133483113       -0.0011152490
O        -0.0068171408       -0.0004708729        0.0107416754
O        -0.0046182144       -0.0029924031       -0.0029552231
O        -0.0029512897        0.0013374755        0.0052557039
O        -0.0012705916       -0.0083965677       -0.0024690424
O         0.0064913796       -0.0001153499       -0.0004168778
O         0.0012507132       -0.0029579339        0.0029522018
O         0.0034877310       -0.0040950687        0.0004712965
O         0.0047716453       -0.0019452637       -0.0048539949
O        -0.0009743973        0.0048828627       -0.0006600458
O         0.0072044285        0.0020168111        0.0087769454
O         0.0006152538        0.0057706838        0.0080338755
O        -0.0023031655       -0.0057341804        0.0061855858
O        -0.0017664257       -0.0051343728        0.0000940375
O         0.0006557225        0.0077889560        0.0020694104
O        -0.0046506145       -0.0020179394        0.0064778995
O        -0.0039486230        0.0023301809        0.0071121105
O         0.0066792290       -0.0032403243       -0.0003515266
O         0.0022844173        0.0002688188       -0.0000714225
O         0.0003153981        0.0041755022       -0.0084618397
O        -0.0070826311       -0.0008476692       -0.0005700096
O         0.0026956666       -0.0029180989       -0.0076283943
O         0.0010786474        0.0001205369       -0.0076720707
O         0.0016626592       -0.0160163725       -0.0015416450
O        -0.0005144311        0.0037415035       -0.0032056339
O         0.0094419403        0.0004409040       -0.0046774821
O         0.0009790623       -0.0009284292        0.0009246788
O         0.0014973010       -0.0031313778        0.0037330540
O        -0.0007148944        0.0015587438        0.0051621319
O        -0.0090728411       -0.0014198124       -0.0005561706
O        -0.0085305563       -0.0000366523        0.0017488516
O        -0.0043952942       -0.0086133831        0.0082803829
O        -0.0029354098       -0.0025823051       -0.0035279663
O         0.0012092201        0.0057815826        0.0003320820
O        -0.0010734546       -0.0146677246        0.0019203647
O        -0.0046179721        0.0026917955       -0.0029674266
O        -0.0006557765       -0.0012011440        0.0020989109
O        -0.0026716148       -0.0001644523       -0.0066518722
O         0.0111675690       -0.0008818193        0.0013370629
O        -0.0038774739       -0.0156039980       -0.0048216315
O         0.0042617625       -0.0048150127       -0.0082550345
O         0.0027668383       -0.0007688941       -0.0046785314
O         0.0031562593       -0.0038122513       -0.0023975942
O         0.0019371471       -0.0163124705       -0.0005247378
O         0.0026694445        0.0001809376       -0.0049350092
O        -0.0110621595       -0.0040287525        0.0045465593
O        -0.0052092659       -0.0001879618        0.0057623604
O         0.0020833216        0.0042728986        0.0044694843
O        -0.0013108634       -0.0002528588        0.0029375237
O         0.0055512456       -0.0049815307        0.0065171243
O        -0.0069124287       -0.0031670252       -0.0005005370
O         0.0030805664       -0.0030020731       -0.0026806105
O        -0.0054045175        0.0071367602       -0.0052650054
O        -0.0110699418       -0.0060904750        0.0037175459
O        -0.0077132779       -0.0041812227        0.0013432309
O        -0.0045256872        0.0034817101        0.0078285803
O         0.0031167834        0.0028961671       -0.0007300122
O        -0.0088673339        0.0024056710        0.0056875710
O         0.0027673873        0.0001850064        0.0000974185
O        -0.0007380716       -0.0098922595        0.0029725314
O        -0.0036218617        0.0060651593       -0.0045217210
O         0.0050949625        0.0011264746       -0.0028689802
O        -0.0081036742        0.0001667330        0.0043021385
O         0.0040162171       -0.0053089419        0.0025860461
O         0.0040174421        0.0036580682       -0.0025427068
O        -0.0062598910        0.0031877227        0.0001935050
O         0.0009531547        0.0038618516        0.0056835212
O        -0.0036828534       -0.0087559219        0.0064572976
O        -0.0003497466       -0.0024951820        0.0023695937
O         0.0093398900       -0.0007759950        0.0015732308
O        -0.0077259484       -0.0014609399       -0.0011323841
O         0.0030353450       -0.0013561658        0.0044063460
O        -0.0014165776       -0.0113491621        0.0032096818
O        -0.0046343074        0.0024839510        0.0070400623
O        -0.0038760150        0.0006592371        0.0002340060
O        -0.0004918224        0.0001034877       -0.0203763840
O         0.0022003335       -0.0010611867        0.0028009245
O         0.0041491183        0.0030612974       -0.0038594490
O         0.0105887000       -0.0000928643        0.0049870518
O        -0.0005058155        0.0050394557       -0.0066198054
O         0.0002436558        0.0013531035        0.0054982850
O         0.0006342764        0.0041229952        0.0006218575
O         0.0002764770       -0.0113568936        0.0028883265
O         0.0012881957       -0.0047802069        0.0024610845
O         0.0069728020        0.0041520765        0.0003817248
O         0.0029553273        0.0014701024        0.0023586596
O         0.0028742978       -0.0000645741       -0.0060206233
O        -0.0004625344        0.0119966396       -0.0062328326
O         0.0034906263       -0.0006709648        0.0021192744
O         0.0080628435        0.0019601557       -0.0081912316
O         0.0011807651       -0.0002697926       -0.0025632768
O         0.0011344376       -0.0061241770       -0.0026090872
O        -0.0010054121       -0.0063948259       -0.0043434421
O         0.0095767618       -0.0033388117        0.0071957773
O         0.0020395492       -0.0029044191       -0.0003116217
O        -0.0001896800       -0.0032280761       -0.0002879334
O        -0.0031169250       -0.0080316257       -0.0023776536
O        -0.0026587331        0.0064111536        0.0052893465
O        -0.0035924352       -0.0001272269        0.0030192927
O         0.0038103406       -0.0007611330        0.0028081310
O        -0.0001179884       -0.0010922270       -0.0013715456
O         0.0003021906        0.0004017363       -0.0018451677
O         0.0132199139       -0.0058939606       -0.0034531074
O        -0.0002601873        0.0020709699        0.0051777583
O        -0.0035469732       -0.0024816650        0.0010291414
O         0.0025893501        0.0011302760        0.0026134042
O        -0.0062906571        0.0045832625        0.0068267211
O        -0.0005113069        0.0061413272        0.0011940180
O        -0.0034050718        0.0035440901       -0.0015986908
O         0.0043956785       -0.0000753112       -0.0088081937
O        -0.0040963238        0.0101301601        0.0010716415
O        -0.0037241858        0.0032709961        0.0013202400
O        -0.0009273678       -0.0099938096       -0.0075468423
O         0.0115935711        0.0038295749        0.0021530622
O        -0.0007055128        0.0023448785        0.0007181014
O         0.0020348834        0.0005308623       -0.0024607653
O        -0.0002786378       -0.0016984476        0.0016487777
O        -0.0082379814       -0.0003780962       -0.0035335049
O         0.0001168037       -0.0000631250        0.0029984469
     192
 i =        3, E =     -5775.4441198186
Ti        -0.0019880484        0.0014585208        0.0024236805
Ti         0.0036044114       -0.0017614792       -0.0019064139
Ti        -0.0032681211       -0.0040845627       -0.0066194451
Ti         0.0008833555        0.0122897145        0.0007619937
Ti         0.0036875668        0.0014907239        0.0004702788
Ti        -0.0057563907        0.0042989653       -0.0034480780
Ti        -0.0045427010        0.0004166904       -0.0028913918
Ti         0.0006096727        0.0007770845        0.0036778070
Ti        -0.0041970832       -0.0029717830       -0.0017808999
Ti         0.0018577130       -0.0037892888       -0.0027554880
Ti        -0.0063747396       -0.0019662368        0.0002229342
Ti         0.0013910259        0.0010850410       -0.0003887777
Ti         0.0062544633       -0.0055240242       -0.0037295132
Ti         0.0008384283        0.0068805238        0.0085574549
Ti        -0.0047404023        0.0010501154       -0.0022170351
Ti        -0.0017654726        0.0122586425       -0.0049234143
Ti        -0.0004652483        0.0009264242       -0.0041041833
Ti         0.0004663958        0.0049328627        0.0017529212
Ti         0.0083082151        0.0071404648       -0.0014806165
Ti         0.0032845129       -0.0051731491       -0.0058975106
Ti         0.0012141976        0.0004797835       -0.0060137622
Ti        -0.0042347678       -0.0078561962       -0.0030873805
Ti         0.0047200956        0.0012034524        0.0053763837
Ti        -0.0085684621        0.0067765680       -0.0026450466
Ti        -0.0040469168       -0.0013198002        0.0052022143
Ti        -0.0084574868        0.0000484722       -0.0021083441
Ti         0.0050338820        0.0025837039       -0.0017077281
Ti        -0.0006598345        0.0048500538        0.0012154785
Ti         0.0022094827        0.0067515533        0.0032898429
Ti         0.0027729969        0.0093526535        0.0054676351
Ti        -0.0011995529        0.0023409937        0.0023923538
Ti        -0.0048534825       -0.0004022281        0.0025801730
Ti         0.0081910415        0.0011164862       -0.0044709059
Ti        -0.0042291835        0.0040561715       -0.0026408756
Ti         0.0034450705       -0.0020238736       -0.0069916571
Ti         0.0147454806       -0.0064263577       -0.0065811106
Ti        -0.0001927977        0.0011849155        0.0022379021
Ti        -0.0034851348       -0.0001528576        0.0051538297
Ti        -0.0054805394        0.0042037421       -0.0041232050
Ti        -0.0024516640        0.0102085326       -0.0020296702
Ti        -0.0076837526        0.0024878784        0.0056730582
Ti         0.0027804233        0.0061316837        0.0009026826
Ti         0.0061356698        0.0022586852       -0.0052163376
Ti        -0.0011981536        0.0050996057        0.0015675148
Ti         0.0007187187       -0.0045762177       -0.0061913846
Ti        -0.0044499968       -0.0017714398       -0.0017883238
Ti         0.0087435072        0.0024397511       -0.0042420264
Ti         0.0026437104        0.0085368999       -0.0009680514
Ti        -0.0016614321        0.0077611823        0.0067390469
Ti        -0.0025705562        0.0032350450        0.0000678228
Ti        -0.0041212663        0.0064911350        0.0041650757
Ti        -0.0055277656       -0.0046949270        0.0015359386
Ti         0.0025988616        0.0008446482       -0.0028480256
Ti         0.0022945244       -0.0033384108       -0.0016643813
Ti        -0.0006046244       -0.0028431267        0.0043974341
Ti         0.0033065923        0.0043710076       -0.0010205770
Ti        -0.0024697897        0.0011953974       -0.0006030291
Ti         0.0056301590       -0.0109840424       -0.0000470355
Ti         0.0031083802        0.0046203524        0.0035651374
Ti        -0.0048955498       -0.0011667392        0.0039768810
Ti        -0.0035980440        0.0012915544        0.0040968408
Ti        -0.0023445848       -0.0098660348        0.0019130790
Ti         0.0040446944        0.0010054459        0.0016629269
Ti        -0.0049057497        0.0051303367       -0.0006868635
O        -0.0011352670        0.0034682419        0.0049068829
O         0.0015334847       -0.0027621269        0.0040079439
O        -0.0042470378        0.0015223188        0.0040365377
O         0.0020446441        0.0019939238        0.0016227172
O         0.0022290110       -0.0002421009       -0.0030826423
O         0.0026908689       -0.0034962410        0.0030724953
O         0.0037620659       -0.0019145072        0.0030968918
O         0.0051112636        0.0006123236       -0.0004983594
O         0.0034267711       -0.0059571497       -0.0016162361
O        -0.0014400101       -0.0035813604       -0.0012195929
O         0.0014158963        0.0007215910        0.0022698195
O         0.0020040228       -0.0010158875        0.0000025427
O         0.0001083407       -0.0015266917        0.0017904538
O        -0.0031246037       -0.0024666275       -0.0034211748
O         0.0032575590       -0.0065682124        0.0004531604
O         0.0040435368       -0.0011717528        0.0022755764
O         0.0001129878        0.0001087464       -0.0010201715
O         0.0035287014       -0.0010739831       -0.0038186488
O        -0.0032429515        0.0015981732        0.0010222981
O         0.0038039783        0.0042940098        0.0036775243
O         0.0020363313        0.0016230451        0.0035410505
O         0.0035137515       -0.0024189887        0.0058665280